# vtk DataFile Version 3.0
Impact Fragments | Time = 357.1 μs
ASCII
DATASET POLYDATA
POINTS 107 float
-0.3455 59.1250 -1.0687
5.8633 61.4717 -6.0000
5.8020 56.3201 0.1378
-1.6937 61.8546 1.4179
7.3747 59.6558 -6.0000
-13.9007 61.9062 0.7038
4.9799 53.3928 -1.9769
-7.0122 59.4640 1.2726
-0.7380 58.3761 -0.0986
9.9069 63.0052 1.8203
6.4922 52.2491 -0.8153
4.1411 60.7940 -1.7708
1.0832 65.2077 -1.0976
4.2496 51.7210 -0.2310
5.1759 59.6144 -6.0000
4.2310 61.2812 -6.0000
-4.9849 60.2244 -6.0000
0.4027 56.3084 -1.6706
-3.1854 64.2585 -1.0630
2.9966 60.8598 1.7466
-1.7133 49.0694 -0.2088
-7.1519 62.9678 1.9121
-2.5735 61.6207 0.6033
1.2551 65.3667 -1.2230
-9.1444 73.3027 -1.1345
-8.5049 61.4860 -0.6660
0.4038 67.1159 -6.0000
-17.5741 57.8081 -6.0000
-2.4572 58.4121 -0.0577
-1.0506 63.3144 -0.0982
-2.8923 62.8372 1.4058
-6.0583 53.9142 -0.5933
5.7133 58.2733 -1.1801
-1.2491 63.5812 0.9539
2.1707 56.8132 -1.4780
-8.1096 56.4220 -0.9687
1.7171 57.7839 -6.0000
-8.7933 66.0917 1.5286
-6.4215 68.1520 -1.1374
6.0624 55.1481 0.5995
8.9763 57.0465 1.6563
2.5905 74.2213 -6.0000
16.4568 59.2203 1.4089
2.1321 60.3661 -1.2170
3.0107 53.4742 -1.8211
-2.5990 59.6609 0.4174
-2.8347 61.3185 1.6782
-0.1993 68.9918 -6.0000
-7.3952 56.6117 -0.3072
11.4815 64.3176 -6.0000
7.6636 59.6775 -6.0000
-4.0104 50.0369 0.2278
11.7645 59.9948 0.7697
-9.5451 45.5225 0.5050
-1.3131 67.0150 0.6974
0.2234 70.8881 -6.0000
18.9494 71.9566 -6.0000
-2.5378 53.2880 -1.8751
-6.0315 58.0477 -0.2802
-0.1527 61.3575 0.5683
-7.2254 64.2151 -6.0000
-0.6183 65.6641 0.0324
-4.3659 60.1810 1.6446
-0.2533 58.6169 0.9772
12.4220 60.5457 -1.6415
5.7075 52.4426 -6.0000
4.2573 69.0956 -1.2542
3.9821 55.9148 -0.4629
9.3183 61.1166 1.5104
10.3676 61.6122 -1.1669
-5.3748 57.9357 -1.3032
-11.0466 55.0095 0.6827
-8.1460 62.7143 -0.5445
7.6871 67.4374 -1.2690
-16.6165 63.7810 -6.0000
-9.8173 68.6660 1.0084
-19.7762 57.8370 -6.0000
2.3426 52.5495 -1.1231
-5.3695 63.4081 -0.2002
-1.1160 56.8502 1.6381
-1.4196 48.9779 -0.7431
-18.1787 58.2493 0.3594
-5.6220 49.2378 0.3922
-12.0575 64.8713 -1.6984
21.0397 54.7566 -6.0000
-4.0873 67.7249 -6.0000
-6.3946 65.5023 -6.0000
-2.5000 57.5499 -0.2031
-4.6760 58.9238 -1.7392
-2.1395 65.1391 0.0563
2.6096 56.5716 1.6379
-1.8048 55.0915 1.7542
-15.4325 52.8661 -6.0000
2.0260 53.3330 -1.8862
-8.2732 61.8154 -0.1445
-4.6583 45.2643 -6.0000
5.3839 71.6053 1.0590
2.0899 54.2724 -0.7173
-10.1702 57.1281 -1.4043
3.2919 58.9292 1.7036
-4.2042 59.3034 1.9491
0.0402 52.5168 -1.5003
6.2625 48.6187 -6.0000
0.0225 47.9907 -1.7932
-17.0076 57.7747 -6.0000
2.4890 62.7796 -0.7911
0.6884 55.6723 1.4707

VERTICES 107 214
1 0
1 1
1 2
1 3
1 4
1 5
1 6
1 7
1 8
1 9
1 10
1 11
1 12
1 13
1 14
1 15
1 16
1 17
1 18
1 19
1 20
1 21
1 22
1 23
1 24
1 25
1 26
1 27
1 28
1 29
1 30
1 31
1 32
1 33
1 34
1 35
1 36
1 37
1 38
1 39
1 40
1 41
1 42
1 43
1 44
1 45
1 46
1 47
1 48
1 49
1 50
1 51
1 52
1 53
1 54
1 55
1 56
1 57
1 58
1 59
1 60
1 61
1 62
1 63
1 64
1 65
1 66
1 67
1 68
1 69
1 70
1 71
1 72
1 73
1 74
1 75
1 76
1 77
1 78
1 79
1 80
1 81
1 82
1 83
1 84
1 85
1 86
1 87
1 88
1 89
1 90
1 91
1 92
1 93
1 94
1 95
1 96
1 97
1 98
1 99
1 100
1 101
1 102
1 103
1 104
1 105
1 106

POINT_DATA 107
VECTORS Velocity float
-26.9083 22.2609 34.2814
7.6427 16.5434 -55.9579
31.8549 59.1600 102.7495
33.7402 71.6980 108.8589
17.7154 29.9404 -35.6810
11.4994 103.9623 96.8311
7.7978 39.6819 83.3428
16.7285 75.5960 115.9379
-2.0085 31.8837 61.7918
-26.6132 61.0182 64.1931
54.8385 126.2177 99.0720
41.8652 104.1004 64.5868
-34.3928 36.0001 62.0524
29.1954 47.4372 71.3695
-6.5730 16.6630 -48.5015
-3.2815 -0.3395 -36.9114
9.4323 12.7530 -48.4004
22.7552 41.4374 56.6251
5.9619 71.0534 46.1472
-37.7425 77.2211 51.0508
-23.0656 26.8195 68.2456
-54.2159 70.1285 111.7978
-19.4471 28.2458 63.7042
9.5624 58.4213 96.6540
-34.7537 38.4958 62.3213
-21.0373 65.0946 88.7407
-7.3008 29.0183 -54.4411
-14.4510 -1.2313 -38.8336
30.8459 39.6821 43.7768
42.7523 122.5323 78.2489
-0.9157 44.3928 35.4120
-7.1167 113.5575 104.2380
50.4176 58.6382 71.1281
-41.2894 66.0890 142.6543
21.0195 57.4322 53.4091
17.4095 51.9071 41.4420
-15.8487 17.0629 -59.9591
-20.6733 25.7116 42.3697
-11.0047 80.9308 102.3066
-11.7594 16.3442 37.2320
-35.2453 55.2335 52.5975
-17.0431 14.5583 -39.3243
-28.9341 46.7461 85.6120
49.8224 83.5927 124.5293
-43.9905 66.1964 105.3411
-15.2337 53.2541 46.0750
11.8585 36.6283 52.7995
12.3551 24.0453 -54.3864
-0.0495 36.4833 99.5959
-14.2194 -1.4209 -44.0534
-1.4008 18.4389 -41.2866
-5.8076 67.0288 47.9855
37.4535 57.5680 87.4342
-66.4618 62.0996 137.0330
26.4629 64.0140 81.3160
-2.8391 8.9544 -61.2300
8.2745 12.2790 -53.4731
8.5100 84.9394 85.0051
34.0265 42.8006 46.3217
-10.7314 42.7414 60.2582
2.8833 7.1933 -24.4727
25.9380 56.5575 56.1973
6.0286 35.8616 45.3069
-10.7897 41.7873 88.0908
-19.8080 49.6266 104.6447
1.7025 8.9646 -38.8367
-38.7561 57.2377 55.3183
20.2308 107.1888 91.0499
-14.0794 54.6723 70.7324
-50.9840 116.2550 116.9539
-50.3815 108.1956 95.6390
-12.6056 66.1974 124.8876
13.4037 81.4805 60.0504
-41.6119 89.5019 94.6895
-11.8441 9.6446 -40.3193
30.6294 69.5636 59.6295
17.8683 -9.4578 -56.4356
0.3635 58.6968 42.9742
23.1860 47.5884 70.0924
12.1279 58.1867 92.6281
65.8892 104.9352 75.9945
-13.1398 88.6167 54.1187
-14.1725 47.3534 48.7542
-6.8746 23.7614 30.0104
10.6534 20.3043 -32.6598
-4.7230 19.9762 -66.6702
3.0645 -2.7220 -20.1466
55.6348 101.2002 82.3168
37.0576 31.0395 62.4677
20.3692 37.5881 55.8048
-12.6793 33.8155 37.7066
-44.0365 35.2129 64.9247
15.1931 4.8684 -44.6408
26.3715 93.4710 63.2134
18.5342 53.2302 66.5907
-0.1371 6.2184 -27.3895
36.6844 80.9755 113.3509
-19.8104 51.1720 61.2268
15.4438 67.1334 51.3805
38.4510 86.3227 127.6424
38.2540 68.6857 56.7812
-25.9537 69.5988 64.4208
13.3030 31.5125 -59.6480
25.6800 45.9819 76.0708
-8.1617 10.4621 -35.5026
25.6525 38.3240 54.3700
-18.4621 41.2795 65.0191
SCALARS Mass float
LOOKUP_TABLE default
0.000827
0.000133
0.000576
0.000773
0.001225
0.000822
0.000935
0.000804
0.001396
0.001656
0.000740
0.000213
0.001129
0.000814
0.001337
0.000393
0.001997
0.000807
0.001998
0.000193
0.001909
0.000674
0.000156
0.001070
0.001204
0.000364
0.000331
0.001731
0.001600
0.001846
0.001709
0.000433
0.001021
0.000189
0.000153
0.000183
0.001837
0.001783
0.001135
0.001051
0.001456
0.001951
0.000474
0.001459
0.001627
0.001975
0.000508
0.001567
0.001895
0.001084
0.000882
0.000331
0.001991
0.001372
0.001854
0.000174
0.001485
0.000555
0.000372
0.000354
0.001737
0.001187
0.001851
0.001744
0.000992
0.000677
0.000616
0.001615
0.000834
0.001985
0.001685
0.000652
0.001296
0.000750
0.000685
0.000387
0.000856
0.000291
0.000493
0.001777
0.000779
0.000603
0.000359
0.000698
0.001530
0.000711
0.001239
0.001065
0.001558
0.001012
0.001005
0.000737
0.001375
0.000822
0.000531
0.000669
0.000563
0.001527
0.000257
0.001887
0.000287
0.000154
0.001082
0.001416
0.000804
0.002000
0.000634
SCALARS Temperature float
LOOKUP_TABLE default
567.4
401.2
340.8
623.5
471.2
570.2
542.7
390.0
569.2
347.7
601.9
501.0
543.2
686.0
448.1
310.7
313.8
728.0
692.4
556.5
372.3
483.5
747.4
531.4
433.9
452.0
642.0
512.3
376.2
500.9
544.5
516.7
406.9
639.2
534.1
456.2
428.6
365.8
461.7
744.3
644.2
356.5
343.8
569.5
790.5
427.2
375.0
413.6
485.8
659.4
500.3
486.9
790.6
620.7
396.3
440.2
604.7
493.4
795.6
740.2
546.7
575.3
667.6
767.1
565.8
330.6
784.0
346.3
625.0
795.7
658.4
499.2
354.4
685.9
724.1
448.2
663.6
750.9
565.7
696.6
674.3
435.7
676.9
389.7
630.2
624.4
584.4
601.7
712.4
329.9
345.1
529.3
397.8
794.4
608.1
616.2
764.1
407.4
720.8
712.4
406.3
302.0
474.0
388.8
493.6
783.2
702.9
SCALARS FragmentID int
LOOKUP_TABLE default
0
1
2
3
4
5
6
7
8
9
10
11
12
13
14
15
16
17
18
19
20
21
22
23
24
25
26
27
28
29
30
31
32
33
34
35
36
37
38
39
40
41
42
43
44
45
46
47
48
49
50
51
52
53
54
55
56
57
58
59
60
61
62
63
64
65
66
67
68
69
70
71
72
73
74
75
76
77
78
79
80
81
82
83
84
85
86
87
88
89
90
91
92
93
94
95
96
97
98
99
100
101
102
103
104
105
106
