# vtk DataFile Version 3.0
Impact Fragments | Time = 250.0 μs
ASCII
DATASET POLYDATA
POINTS 75 float
0.5570 55.4609 -6.0000
-12.3244 65.3885 -6.0000
15.7222 66.8008 0.5879
12.7044 57.6248 0.2104
9.1529 63.6472 -0.8053
-3.4926 51.0491 -6.0000
-1.8841 53.3336 -6.0000
-0.9980 56.4405 -0.2310
21.0879 59.2759 -1.4622
7.4056 52.7930 -1.3448
-10.8989 59.6076 0.3094
4.1709 54.8551 0.4174
9.2198 46.8463 -6.0000
-6.3533 63.8194 0.2907
3.4947 52.8992 -6.0000
9.8085 56.3101 -6.0000
-0.8128 57.3517 0.4517
8.6206 63.2037 -6.0000
-6.0681 57.2930 1.5105
-1.8331 64.6332 -6.0000
-0.1124 57.0556 0.7746
11.5330 65.4703 -6.0000
17.6051 55.1476 -6.0000
0.3100 66.6241 -0.8650
-9.0270 65.0206 1.8835
11.0739 46.4004 -6.0000
10.8021 59.3225 -1.8915
-6.6620 57.1391 -6.0000
-14.1002 67.2049 -6.0000
2.3113 50.9194 -1.2156
-18.5160 61.4575 -0.1599
5.8789 67.1477 -0.9320
4.3834 55.0822 0.5036
0.9115 60.1313 -1.2450
1.8779 61.6703 0.4279
5.6311 53.2953 -6.0000
11.0599 62.7810 1.3300
-3.0582 63.5544 -6.0000
5.7371 58.9130 -1.5352
4.8518 62.1512 -0.0372
15.6286 52.1362 -6.0000
8.3881 58.4187 -0.0742
-3.4845 57.6895 -1.9886
0.2013 62.2913 -1.2706
-7.3205 49.8667 0.1763
-17.5055 55.2162 -0.7041
-4.1275 60.5386 0.7560
2.4957 63.9262 -0.6130
-16.4323 67.6147 -0.8716
8.5159 52.9673 0.5141
-12.9140 57.3861 -6.0000
-3.5916 56.1785 0.6813
1.8453 65.5434 -6.0000
16.5088 83.3515 -6.0000
7.5470 59.9517 1.0252
-11.6192 56.2734 1.8702
-5.4355 57.7324 -1.7768
7.2018 60.5861 1.2887
-4.2554 70.5875 -6.0000
12.6083 64.0151 -1.2484
6.1111 73.8809 -6.0000
1.5078 56.1086 -6.0000
-6.2909 72.9971 -6.0000
6.1355 57.0954 -0.8562
-5.2667 54.3622 0.4946
6.6629 58.4081 1.1808
0.6078 60.8725 -1.0748
-8.8553 60.8067 -6.0000
-0.1946 59.7361 1.7780
-12.5663 48.6993 -6.0000
-1.2051 58.8697 -6.0000
-5.4007 64.0746 -0.0106
10.4184 53.4484 -6.0000
4.3913 59.6137 -1.4567
11.1789 56.6203 -6.0000

VERTICES 75 150
1 0
1 1
1 2
1 3
1 4
1 5
1 6
1 7
1 8
1 9
1 10
1 11
1 12
1 13
1 14
1 15
1 16
1 17
1 18
1 19
1 20
1 21
1 22
1 23
1 24
1 25
1 26
1 27
1 28
1 29
1 30
1 31
1 32
1 33
1 34
1 35
1 36
1 37
1 38
1 39
1 40
1 41
1 42
1 43
1 44
1 45
1 46
1 47
1 48
1 49
1 50
1 51
1 52
1 53
1 54
1 55
1 56
1 57
1 58
1 59
1 60
1 61
1 62
1 63
1 64
1 65
1 66
1 67
1 68
1 69
1 70
1 71
1 72
1 73
1 74

POINT_DATA 75
VECTORS Velocity float
-13.2778 31.7091 -56.7430
1.6350 6.3809 -26.6397
-11.0204 67.3165 39.4240
26.6123 66.5417 40.0679
-28.4184 46.1956 46.0403
-15.1861 8.1345 -51.4132
-2.6199 -3.7016 -33.7258
0.1641 44.3871 49.0546
21.1103 46.2711 78.2114
-23.2327 41.0654 49.5619
11.0116 28.8618 51.2408
-11.3208 33.8006 37.2413
17.9680 -6.4421 -43.0194
12.3149 66.1225 85.1934
-7.1489 1.0916 -38.7222
6.7279 18.6644 -42.4845
-33.0808 103.3336 99.4645
-4.1698 1.7977 -23.4315
-8.0429 53.3557 59.8453
-6.1432 12.8076 -58.2338
31.9335 81.7639 97.3698
-2.1186 0.8482 -40.7052
0.5660 10.3592 -53.0838
5.9116 25.3478 52.3108
-53.6351 43.4264 91.8190
-4.0899 -1.5840 -32.2116
34.2167 49.6153 68.5945
-12.4580 7.2358 -38.7442
2.1489 2.7854 -30.6509
-34.3744 68.8087 56.3752
21.6534 53.4933 70.5084
0.5170 46.8307 47.2094
-44.0127 61.3379 72.8849
55.0852 42.4598 128.4732
-2.5995 66.7300 71.1024
-0.2385 -0.9898 -51.9817
-19.0478 49.1281 56.2332
-1.6073 18.3426 -41.2478
21.9206 42.4735 60.2194
4.2491 44.7919 65.0436
-23.0015 8.7648 -56.5627
-19.0274 58.7087 49.1549
61.7125 86.9270 120.1225
40.4244 96.0026 62.5925
16.6189 77.2939 90.0740
3.0850 90.9346 60.7702
45.6683 110.5225 119.2667
-25.7962 85.8186 55.4540
45.7113 85.8384 78.1426
13.3533 69.8535 70.5277
2.6323 -4.4990 -43.6073
47.2171 92.7146 133.8357
4.5213 21.1167 -40.6915
6.5563 12.1399 -19.1089
15.3708 52.1345 47.7055
-28.0586 69.2398 60.3085
-38.0710 72.5845 73.6662
30.9486 122.3169 119.3065
-21.9896 -14.5890 -49.3637
-10.5116 66.2157 53.3538
-0.7718 20.3304 -30.0018
1.6908 -7.2551 -31.7300
1.8264 1.5863 -51.5249
-13.0446 107.8531 97.3665
43.0978 84.3455 63.4770
-6.1006 95.9225 130.9949
-11.4595 24.0538 50.3508
8.4544 6.5637 -65.1391
24.5883 47.4190 41.4223
-10.1970 8.7429 -32.3267
-3.1259 -2.7634 -33.3302
12.8408 96.6308 71.0903
6.2018 6.8072 -55.9341
26.6929 48.3158 46.4087
-5.7707 14.8581 -42.8579
SCALARS Mass float
LOOKUP_TABLE default
0.000715
0.000451
0.001196
0.000918
0.001201
0.001842
0.000856
0.000937
0.001761
0.000705
0.000603
0.001451
0.000391
0.000458
0.001539
0.000961
0.000733
0.000856
0.001006
0.000111
0.001773
0.001518
0.001132
0.000335
0.001146
0.000794
0.000827
0.000792
0.000481
0.000895
0.000997
0.000852
0.000881
0.001806
0.001676
0.001672
0.001159
0.001887
0.000768
0.000300
0.001994
0.000454
0.001570
0.000942
0.001515
0.001184
0.000230
0.000627
0.000782
0.001612
0.000798
0.001045
0.000598
0.001693
0.000288
0.000213
0.001090
0.001806
0.001657
0.001406
0.001561
0.000635
0.000353
0.001546
0.001017
0.001086
0.001910
0.001215
0.000883
0.001985
0.001533
0.000186
0.001082
0.001525
0.001914
SCALARS Temperature float
LOOKUP_TABLE default
727.8
613.6
418.6
308.4
718.4
795.8
581.7
514.2
531.0
370.8
524.6
663.2
677.3
410.4
447.3
348.2
650.0
517.9
794.9
502.3
699.2
441.7
363.2
554.4
417.7
566.4
606.6
543.2
580.5
733.6
562.3
403.5
758.1
507.8
361.5
438.2
688.9
752.9
658.5
668.5
698.6
610.8
570.6
716.5
333.4
370.4
762.6
735.5
572.1
411.2
608.2
715.2
730.4
631.9
355.6
634.8
653.3
469.5
429.3
388.5
320.8
567.8
344.9
469.0
377.6
434.6
585.6
688.4
451.5
645.2
764.3
735.1
442.3
720.5
639.0
SCALARS FragmentID int
LOOKUP_TABLE default
0
1
2
3
4
5
6
7
8
9
10
11
12
13
14
15
16
17
18
19
20
21
22
23
24
25
26
27
28
29
30
31
32
33
34
35
36
37
38
39
40
41
42
43
44
45
46
47
48
49
50
51
52
53
54
55
56
57
58
59
60
61
62
63
64
65
66
67
68
69
70
71
72
73
74
