# vtk DataFile Version 3.0
Impact Fragments | Time = 500.0 μs
ASCII
DATASET POLYDATA
POINTS 150 float
2.7129 62.7524 -0.1997
3.6599 59.4627 0.4545
3.5022 34.7372 -6.0000
1.8677 61.9798 -6.0000
8.6083 65.2745 0.4135
2.0259 69.3403 0.4886
1.8294 59.3607 -1.1013
-3.0067 58.8236 -1.2741
8.1440 62.5258 -1.8332
2.5086 69.5621 -6.0000
4.8914 59.1049 0.9407
10.5879 55.3860 -1.0148
3.4185 60.0543 -6.0000
-1.7505 51.7335 -0.9411
-0.6442 50.1019 -6.0000
2.7147 45.7850 1.5106
-11.3267 57.8688 0.4542
2.8190 63.8648 -6.0000
-2.3802 54.9370 -1.3622
-18.8759 54.8989 -0.1274
7.8874 66.2256 0.3096
4.5486 60.5920 0.6775
-3.9854 60.9142 -1.9347
-8.4421 41.7560 -6.0000
0.0748 68.0474 -1.3931
-0.9588 63.4258 -1.2502
5.9575 55.9978 0.7795
-3.9281 59.0224 0.0809
7.5326 61.7445 -0.6072
7.0513 64.9539 -0.8922
-7.7669 54.5032 1.3111
-11.3923 62.8478 -0.6583
-5.6114 56.0106 -6.0000
8.3687 65.5740 1.5609
-1.7673 73.1710 -1.1147
8.5920 53.0290 0.1314
6.2822 67.5709 -1.5634
6.3416 54.2635 0.9206
1.0597 64.5371 -6.0000
-9.8731 58.7352 -6.0000
-4.7360 63.8108 -1.9274
-1.8635 71.3805 -6.0000
-8.3414 53.9788 0.1761
-20.4159 69.7034 -6.0000
12.3903 66.9190 1.4812
10.5297 59.4151 -1.3500
6.5809 50.3096 -6.0000
-6.1610 62.5058 -0.9557
5.9676 63.7321 1.5710
-10.1706 58.9885 -1.2646
-6.7041 61.7489 -0.2581
-5.5373 44.6414 -6.0000
0.3411 59.7410 -6.0000
-6.5765 63.6513 1.7146
-20.5236 65.1945 1.1723
-2.4682 57.9725 -1.9030
-6.0333 60.2814 -6.0000
0.4471 65.6829 -0.0915
7.3687 60.4534 0.9287
-0.3417 65.7805 -0.7568
-25.7354 54.4341 -6.0000
2.3908 58.2933 0.1117
-4.2962 51.9812 -6.0000
1.3008 66.8058 -0.5315
16.3722 55.1250 -1.5543
5.2228 64.0210 -6.0000
-1.6518 55.0965 -0.4915
-11.6952 63.9559 -1.0182
-4.0308 63.7558 -1.4294
-6.0891 62.9270 -0.4744
13.0223 57.0003 -0.7482
-14.6020 65.6246 -6.0000
-2.8830 55.2212 -1.2766
7.3166 50.4628 -6.0000
0.0220 30.5107 -6.0000
8.7818 65.1938 -6.0000
10.9095 58.3794 -6.0000
-2.2637 49.2008 -6.0000
14.0034 67.2707 -1.4450
6.2667 63.9923 -6.0000
-14.3932 64.2467 -1.7982
5.6856 58.2714 -6.0000
-15.9064 63.5185 0.9712
-1.6834 65.0156 -0.3414
-7.7031 46.0070 -6.0000
-11.4316 62.2677 0.8846
2.7108 67.3219 1.8237
3.0909 68.5924 0.2194
10.5956 57.2289 1.5311
2.8192 52.1438 -6.0000
-11.7126 46.1983 -6.0000
-0.8717 67.4785 -1.2038
4.5758 55.4868 1.7045
7.6714 84.6411 -6.0000
-4.5599 56.3476 0.4459
3.1045 56.5183 0.4598
-10.5882 56.5142 0.2901
6.4214 54.9501 -1.5269
-1.5867 65.5636 -6.0000
9.4282 54.5427 -6.0000
12.7672 59.6559 -0.7246
7.0100 61.9549 -0.5798
3.9258 59.7272 -0.7593
3.7039 60.6599 1.6673
-11.5780 51.5165 -0.8039
-5.7330 61.7180 -1.0755
-31.0089 66.9485 -6.0000
0.7211 59.6350 -1.2230
-5.1653 59.0303 -0.5554
-12.3667 65.2661 -6.0000
0.9602 48.2035 -6.0000
2.1153 59.2350 -6.0000
-11.0188 58.7363 -0.0734
-2.3295 53.9202 1.2443
-12.1857 56.2145 -0.7501
2.7804 60.7174 -1.2534
7.0482 69.1034 0.1290
-24.7711 62.3556 -1.2678
13.2204 63.7679 0.9082
1.6045 65.2301 -6.0000
8.0164 60.7638 1.9176
5.8841 63.0915 -1.9391
2.9959 57.8660 -6.0000
-0.6753 65.4186 -6.0000
11.8854 61.1034 1.0940
-6.3584 57.6295 -0.4571
5.8594 53.2887 -0.0755
-1.7665 63.2821 -1.2638
-3.1404 67.4933 -0.5295
-0.9326 53.6034 0.0421
11.3061 64.4847 -0.1948
-6.5273 63.0240 -6.0000
-7.8714 60.7846 -1.8239
-13.7619 71.8536 -6.0000
-26.5134 75.5863 -6.0000
-9.4531 62.5830 -1.9583
1.6370 67.4601 -6.0000
1.6137 58.3715 0.4928
-11.0577 65.7739 -1.9265
-9.9508 63.2787 -1.2230
-13.5464 55.4615 1.8758
-1.8179 55.2697 -0.4509
-3.4313 54.1684 -1.5678
7.5565 60.3569 0.2943
3.4828 74.6881 -6.0000
-1.8449 61.4648 -6.0000
-9.8631 64.3214 -1.2903
2.8713 56.3195 -6.0000
-5.8197 61.1472 -1.6148
7.8255 62.2765 0.8343

VERTICES 150 300
1 0
1 1
1 2
1 3
1 4
1 5
1 6
1 7
1 8
1 9
1 10
1 11
1 12
1 13
1 14
1 15
1 16
1 17
1 18
1 19
1 20
1 21
1 22
1 23
1 24
1 25
1 26
1 27
1 28
1 29
1 30
1 31
1 32
1 33
1 34
1 35
1 36
1 37
1 38
1 39
1 40
1 41
1 42
1 43
1 44
1 45
1 46
1 47
1 48
1 49
1 50
1 51
1 52
1 53
1 54
1 55
1 56
1 57
1 58
1 59
1 60
1 61
1 62
1 63
1 64
1 65
1 66
1 67
1 68
1 69
1 70
1 71
1 72
1 73
1 74
1 75
1 76
1 77
1 78
1 79
1 80
1 81
1 82
1 83
1 84
1 85
1 86
1 87
1 88
1 89
1 90
1 91
1 92
1 93
1 94
1 95
1 96
1 97
1 98
1 99
1 100
1 101
1 102
1 103
1 104
1 105
1 106
1 107
1 108
1 109
1 110
1 111
1 112
1 113
1 114
1 115
1 116
1 117
1 118
1 119
1 120
1 121
1 122
1 123
1 124
1 125
1 126
1 127
1 128
1 129
1 130
1 131
1 132
1 133
1 134
1 135
1 136
1 137
1 138
1 139
1 140
1 141
1 142
1 143
1 144
1 145
1 146
1 147
1 148
1 149

POINT_DATA 150
VECTORS Velocity float
35.0243 37.7428 43.5030
41.7296 82.5243 98.9022
-1.9886 0.1911 -23.3220
-0.4521 -4.4148 -46.4372
-13.6589 54.9613 31.3741
41.0758 45.4162 70.9570
-1.1159 87.1003 60.2143
-24.6180 98.3971 85.4099
43.2185 45.3127 88.5814
-4.1405 -8.4862 -31.7781
-25.0432 39.3678 64.6508
-15.8123 51.0288 34.6068
-18.1149 -6.7220 -64.8572
-25.6978 65.3515 42.9891
-2.2949 13.6683 -29.8473
17.3693 30.6838 54.9418
12.8537 26.2586 43.7324
-2.3314 18.5497 -33.4942
15.2672 125.1071 100.6729
-3.7373 44.7743 35.2699
-3.4867 40.1290 56.8819
-23.9442 58.6633 81.0953
-45.2329 79.2737 70.1394
10.3117 4.1425 -28.2827
-51.7178 108.9139 86.0046
21.7324 57.5918 58.1901
46.2972 78.4484 107.6268
-22.5712 56.8342 102.9045
-52.2104 53.1249 89.0603
30.8521 98.0796 78.9497
-17.9069 36.8274 102.6582
-13.7683 47.1006 64.9633
9.3732 -3.1446 -31.1167
-44.1721 61.8390 85.6681
47.2109 114.6200 137.9685
-18.1251 28.1478 36.8095
-13.3327 83.5800 98.1005
12.3216 89.2135 78.0687
11.8835 -7.2840 -24.3812
14.5602 32.5247 -71.8323
-35.6026 60.3548 131.2276
11.0451 19.8095 -51.9249
40.4492 53.7388 80.3380
11.9753 -3.3406 -69.8444
-64.1231 131.0900 89.4964
-13.9456 60.9637 59.9296
-3.3009 -0.0832 -29.8786
-20.1898 90.9894 129.1221
-30.9177 88.4774 73.1754
12.3096 95.7635 98.7245
52.3142 105.6130 74.3964
-18.5740 19.2672 -44.6397
6.0593 6.7087 -27.0449
21.5608 43.4728 47.1021
16.0110 106.3584 113.6001
2.0920 36.7725 101.6574
-8.0167 15.3207 -37.1400
-23.3353 66.6504 46.9939
-42.2108 30.2629 64.9843
38.4143 43.3873 81.6333
13.8518 21.4752 -43.9468
47.8891 43.0787 67.0477
-10.9184 1.7959 -48.6624
29.4071 37.6169 63.0095
3.8567 52.6060 98.1198
-8.4965 4.3348 -19.1253
31.7241 81.1588 87.8483
-22.2868 56.4685 35.7221
37.9156 57.0632 60.7732
32.9277 29.0841 66.3020
-41.3856 35.2201 81.2602
1.4429 -5.6468 -46.4494
-70.0277 126.6080 102.7219
2.0226 -0.0113 -18.5744
18.8438 35.7228 -58.6839
-9.3032 -6.8598 -40.8145
1.7382 11.0702 -58.5036
5.6879 -0.2581 -34.8002
21.5925 52.7339 31.5646
-8.2856 11.6071 -24.6940
-53.2136 131.8819 120.0125
9.1537 13.1438 -28.7269
-26.9877 43.3418 97.8335
-9.2591 120.8991 74.9164
-3.6927 6.8451 -39.9017
37.6344 78.9009 63.8522
11.0378 25.6236 36.8022
31.4357 87.3126 76.0544
10.9268 53.7506 82.6532
15.9067 18.9059 -48.9860
2.4950 7.0967 -31.8784
5.3620 92.3747 75.1389
17.0935 44.0860 93.1082
-17.7502 13.3670 -51.8913
0.1852 91.8587 97.7124
11.8028 64.2797 99.1770
-16.1492 105.9035 118.2043
-68.4308 53.8644 74.0682
9.6554 30.4461 -54.8615
-3.2266 16.2199 -20.4336
-27.7078 67.0165 81.5877
13.8000 45.6829 111.0163
-33.8006 124.8810 133.5694
-27.1409 81.9432 51.0995
27.7104 35.0682 72.5345
-5.0386 39.1377 55.4572
-4.6000 24.1766 -37.3573
10.6577 104.8024 115.6843
43.2803 60.2270 98.0260
-7.1687 26.0814 -53.0266
-3.0063 5.6363 -55.3853
-13.9697 17.6828 -37.9769
-18.7850 50.7705 43.8838
14.7288 71.1099 104.9968
-21.7364 37.6131 40.4478
32.4249 70.4732 63.2801
-26.4019 41.0902 46.1972
-18.8192 19.3498 54.6859
-64.9928 51.6509 102.7327
-5.6395 16.1794 -17.7098
-24.6350 24.6310 41.2102
-6.7105 34.6752 38.9409
-1.5869 -2.6578 -36.0720
-13.1135 -9.2467 -44.4981
22.2289 67.0406 63.5713
-20.5061 67.6775 64.0007
-35.9632 135.5685 104.5992
12.8655 31.4312 29.8782
-31.4422 53.3238 51.8189
30.3016 56.0201 53.1848
-51.3496 61.8995 54.5951
-5.5932 17.8503 -19.0716
18.0050 51.2117 54.4300
-9.4087 4.8482 -39.7545
-11.7230 10.6466 -33.8024
-44.6699 45.5834 107.8369
-3.8803 6.7711 -16.7379
21.1158 48.7990 36.5270
-27.9146 67.1571 64.3267
13.3727 29.0868 51.8638
34.1004 101.6733 110.0631
-15.2492 28.6937 40.5445
26.8059 55.2018 66.2999
19.3313 115.0669 109.2075
-10.6751 -13.9855 -48.8872
-1.9786 14.7521 -17.5608
26.9256 51.8982 68.4639
-9.9548 8.9115 -39.8316
56.3743 68.6314 91.9649
-7.1272 114.3466 108.3031
SCALARS Mass float
LOOKUP_TABLE default
0.001826
0.000845
0.000532
0.001837
0.001724
0.000488
0.000251
0.001385
0.001126
0.001458
0.001929
0.000999
0.001495
0.000928
0.000211
0.000217
0.000814
0.000512
0.001697
0.000775
0.000351
0.000755
0.001346
0.001501
0.000125
0.000973
0.000650
0.001702
0.001127
0.001373
0.000957
0.000704
0.000635
0.001620
0.000354
0.001809
0.001818
0.001196
0.001983
0.000854
0.001402
0.001818
0.001934
0.000757
0.001204
0.001756
0.002000
0.000311
0.000999
0.000544
0.000374
0.000582
0.001986
0.001202
0.001271
0.000347
0.001353
0.000162
0.000518
0.000836
0.001043
0.001176
0.000240
0.001720
0.000450
0.000686
0.000407
0.001494
0.001236
0.001718
0.001305
0.001512
0.000956
0.000541
0.000273
0.000802
0.000172
0.000686
0.001737
0.001833
0.001114
0.001082
0.000141
0.001834
0.001700
0.000958
0.001893
0.000208
0.001708
0.001645
0.000589
0.001294
0.000911
0.001559
0.000126
0.001649
0.001210
0.001829
0.001726
0.000142
0.000280
0.000913
0.001721
0.001566
0.000670
0.000727
0.000373
0.000592
0.001717
0.001501
0.001058
0.001418
0.000513
0.001998
0.001133
0.001327
0.001376
0.001779
0.001335
0.001627
0.000928
0.001020
0.001286
0.000541
0.000485
0.001104
0.000763
0.000609
0.001184
0.000357
0.001795
0.001162
0.000469
0.000837
0.000722
0.001633
0.001643
0.001168
0.001597
0.001665
0.001427
0.001549
0.000986
0.001312
0.001825
0.001879
0.001306
0.000553
0.001785
0.001670
SCALARS Temperature float
LOOKUP_TABLE default
742.8
788.2
443.4
509.7
730.2
614.9
731.8
715.5
737.8
789.1
663.3
755.6
765.5
710.1
632.9
541.8
456.2
543.5
624.9
490.1
361.9
521.9
440.2
561.8
639.5
700.9
483.1
718.7
569.0
403.6
337.9
649.3
589.1
776.6
390.1
642.6
469.0
707.6
404.0
607.1
654.9
795.0
593.4
429.7
328.3
663.2
344.5
727.7
547.7
761.6
379.1
350.1
688.8
468.0
799.8
617.1
389.0
331.8
312.5
788.4
757.8
529.0
499.6
741.4
728.8
530.5
415.9
588.2
355.2
403.5
662.9
791.8
480.3
695.2
312.1
784.2
611.6
672.5
473.8
302.5
654.9
315.0
725.2
656.3
602.8
435.9
731.3
329.7
615.6
510.4
301.6
321.2
479.9
424.9
640.1
374.4
435.0
406.3
400.4
300.1
722.9
396.6
792.6
560.8
651.9
671.3
713.1
654.3
348.2
306.7
500.2
587.8
537.4
478.3
352.7
548.2
526.2
524.9
745.7
563.5
672.9
760.3
373.7
661.8
337.4
488.4
521.6
349.1
361.4
616.3
350.1
660.4
329.8
473.4
364.5
764.3
748.7
300.3
435.2
334.5
621.3
742.1
533.1
328.9
525.6
748.2
703.7
731.1
343.9
534.7
SCALARS FragmentID int
LOOKUP_TABLE default
0
1
2
3
4
5
6
7
8
9
10
11
12
13
14
15
16
17
18
19
20
21
22
23
24
25
26
27
28
29
30
31
32
33
34
35
36
37
38
39
40
41
42
43
44
45
46
47
48
49
50
51
52
53
54
55
56
57
58
59
60
61
62
63
64
65
66
67
68
69
70
71
72
73
74
75
76
77
78
79
80
81
82
83
84
85
86
87
88
89
90
91
92
93
94
95
96
97
98
99
100
101
102
103
104
105
106
107
108
109
110
111
112
113
114
115
116
117
118
119
120
121
122
123
124
125
126
127
128
129
130
131
132
133
134
135
136
137
138
139
140
141
142
143
144
145
146
147
148
149
