# vtk DataFile Version 3.0
Impact Fragments | Time = 142.9 μs
ASCII
DATASET POLYDATA
POINTS 42 float
1.1066 71.5632 0.8006
-1.0777 59.4855 -6.0000
20.2990 72.3373 -6.0000
-0.4584 61.1998 1.0885
-7.4540 66.6918 0.6460
-9.9916 61.8568 1.4916
-9.7267 55.8864 0.2284
-5.8798 55.0228 -6.0000
5.4469 66.9395 -6.0000
2.1869 58.6455 -0.9204
-9.5075 62.3878 0.6249
-5.7425 62.7503 -0.1171
-2.3840 49.9203 0.4034
10.1760 64.6401 0.4057
-1.7322 58.5295 -0.0690
11.5844 57.2322 -1.2550
-6.5606 57.2203 -0.4363
10.7997 55.2233 -1.4344
4.0704 64.7129 -0.6846
10.1435 60.6207 -6.0000
16.7547 57.4839 -0.1999
11.2360 62.2534 0.6281
-3.3482 60.0642 0.1092
0.1813 64.5328 -0.5641
8.7582 59.8796 1.6674
-12.6967 51.9595 -1.3660
1.6801 61.5749 -1.7768
7.2640 64.0178 -6.0000
15.3524 68.7282 -6.0000
1.2138 59.4514 -0.5347
-3.4998 69.5459 -0.7134
-1.0557 55.9926 -1.0445
-0.1958 69.1301 -0.0249
11.2758 57.9123 -1.7946
3.9491 64.2291 -0.2556
11.4733 63.5361 0.9445
-8.8033 54.2326 0.3206
8.8685 67.1006 -6.0000
-5.3643 54.0800 1.4241
3.5534 61.7893 -0.1787
7.4981 62.7898 -0.8775
12.8509 67.9145 -0.1844

VERTICES 42 84
1 0
1 1
1 2
1 3
1 4
1 5
1 6
1 7
1 8
1 9
1 10
1 11
1 12
1 13
1 14
1 15
1 16
1 17
1 18
1 19
1 20
1 21
1 22
1 23
1 24
1 25
1 26
1 27
1 28
1 29
1 30
1 31
1 32
1 33
1 34
1 35
1 36
1 37
1 38
1 39
1 40
1 41

POINT_DATA 42
VECTORS Velocity float
25.8347 77.6414 80.9081
-5.4953 2.8140 -29.6356
5.3792 0.7848 -33.1951
40.9156 70.7909 99.2195
-47.8219 91.9045 108.8933
18.4269 54.0499 39.7288
-39.0436 70.7762 51.7396
-8.9020 7.4241 -30.0374
17.8644 29.2750 -60.4192
-2.2078 111.9646 136.5507
-2.9272 31.9703 26.8927
13.9925 39.8184 108.2993
16.2447 87.4620 79.5362
-21.4480 70.6407 69.3315
5.8316 119.2530 99.3477
3.2110 43.0926 115.4477
-3.8783 39.0297 40.6723
12.9640 74.0217 90.4724
-4.8394 69.3414 80.9987
10.1303 11.1289 -68.1828
-35.8433 33.0770 72.4242
-45.2429 50.4012 94.7549
31.5308 58.1546 61.7432
-27.6237 85.6244 116.7498
-11.9915 49.8348 51.5143
18.5544 45.0091 44.0178
-50.0782 56.3953 63.5530
14.1331 12.0293 -41.0234
1.3001 17.8481 -42.8374
-24.2030 82.8241 102.8732
21.4653 59.8612 48.5778
-47.1421 63.3406 59.8981
65.1265 96.6537 82.6951
-60.9006 43.8050 130.3404
-47.1571 123.3055 77.1531
-6.3332 49.5875 49.9291
15.8150 27.3057 35.6682
3.2172 5.3179 -49.1604
23.9203 115.4505 126.4062
-46.3660 112.4260 114.4045
38.9358 62.7854 91.7391
-47.4988 107.7383 73.7178
SCALARS Mass float
LOOKUP_TABLE default
0.001275
0.001293
0.001591
0.001130
0.000490
0.001445
0.000714
0.000999
0.001803
0.000708
0.001875
0.001275
0.000836
0.000226
0.001331
0.000949
0.000209
0.001290
0.000540
0.000928
0.001861
0.000838
0.000116
0.001380
0.001061
0.001910
0.001762
0.000625
0.000543
0.001519
0.001700
0.001481
0.001664
0.000858
0.000966
0.000753
0.001248
0.000348
0.001721
0.000384
0.000764
0.001574
SCALARS Temperature float
LOOKUP_TABLE default
763.6
378.1
597.3
644.9
632.4
612.7
573.3
667.1
390.3
519.2
751.6
488.8
712.7
416.3
657.0
753.6
319.1
668.8
579.2
738.0
372.6
366.7
550.3
782.2
613.9
722.9
509.2
724.4
768.0
472.7
625.5
789.1
461.5
652.8
479.1
450.3
718.1
785.7
428.0
342.9
400.9
350.0
SCALARS FragmentID int
LOOKUP_TABLE default
0
1
2
3
4
5
6
7
8
9
10
11
12
13
14
15
16
17
18
19
20
21
22
23
24
25
26
27
28
29
30
31
32
33
34
35
36
37
38
39
40
41
