# vtk DataFile Version 3.0
Impact Fragments | Time = 392.9 μs
ASCII
DATASET POLYDATA
POINTS 117 float
-7.8963 59.3645 1.2589
10.8773 63.5373 -1.6142
11.4024 61.6646 -1.6684
8.9614 59.2313 0.7166
-11.6053 58.2430 0.7637
4.2731 67.1458 0.3148
2.4957 59.8847 1.2397
2.5512 65.6935 -1.0768
5.3200 65.7138 0.3731
0.5740 62.6968 -1.7638
-0.2345 63.2972 1.9584
9.2329 52.3206 -6.0000
-21.8629 56.0295 -6.0000
7.0432 65.0047 -0.0547
-12.4040 61.9602 1.0469
-16.5092 69.9009 -1.3501
-5.4093 67.1642 -1.2819
1.7290 58.2501 -1.9578
-3.0973 57.6059 -6.0000
-9.8983 61.2746 -1.8130
-3.0773 58.2409 -6.0000
8.0001 53.3516 -6.0000
5.4741 61.7921 -0.2379
-5.7482 55.6536 -1.9957
2.0630 49.5463 -6.0000
2.3352 62.4668 0.5355
1.8753 53.8563 -6.0000
-10.1327 59.3006 0.6057
-4.2149 64.4003 -0.7538
-14.3603 59.7896 -0.5166
24.8279 56.5751 -6.0000
11.1044 59.0058 -1.1672
4.6157 61.0923 -1.6575
-9.3121 67.6759 -6.0000
-7.2794 66.2087 0.5282
-4.9062 56.8671 0.8281
6.0473 56.0516 -6.0000
12.9711 67.3990 1.8136
2.5296 60.0509 -0.4045
-7.5782 71.1275 -6.0000
-3.1768 55.8492 -6.0000
7.3401 49.4356 -6.0000
10.9826 55.7951 1.0446
-5.6409 66.1251 1.1854
1.5195 56.9581 -1.6112
8.5697 65.0136 0.0063
-0.9028 75.7672 -6.0000
1.6124 62.6927 1.3195
12.6665 58.6923 -6.0000
6.8772 57.9376 1.4682
4.5409 61.1832 1.9889
-0.6017 63.4990 0.0534
5.3033 56.9508 -6.0000
2.7761 59.7652 -1.2250
-3.7519 64.0050 -1.3339
-5.5689 59.1208 -0.5013
-0.7699 50.2669 0.6737
5.8390 59.3733 -6.0000
9.8846 64.2396 -6.0000
-8.2564 56.3447 0.7065
9.2111 50.7975 1.5902
-1.3678 63.7952 0.2385
-5.4585 48.0174 -6.0000
8.2162 54.7638 0.8672
10.9484 60.9171 1.0624
-4.4185 53.8815 1.1522
6.5998 62.7530 -1.5330
-5.7047 60.6210 0.4801
2.0578 69.5266 1.8111
-10.8616 64.5402 -0.7834
-16.6265 53.9016 -6.0000
-22.0318 59.4426 -0.1346
5.9457 59.7876 -6.0000
14.7878 44.8294 -6.0000
-6.6329 56.4483 -1.0983
-1.2298 61.6503 -0.2420
13.8762 65.8131 1.8592
-5.0965 66.3096 -0.7917
11.2052 61.5956 -0.6778
-4.5249 65.7412 -0.7982
3.2513 61.8545 -0.2443
-0.1077 60.8798 0.8671
-4.7238 61.6773 1.7230
14.3588 57.7152 -1.8290
-1.8664 61.2672 -6.0000
1.7172 64.7824 -1.4529
10.4363 48.2643 -6.0000
7.4657 64.3892 -1.3932
-6.1214 61.5081 1.2008
-10.1242 51.2936 1.1056
12.2703 71.3016 -6.0000
-13.9845 71.2781 -6.0000
2.5043 64.6642 -1.8680
-20.2857 65.7698 -6.0000
-6.9753 63.2908 -6.0000
3.8788 55.2805 -6.0000
-14.7040 61.1992 -0.5833
-2.6649 55.7114 -0.7935
5.3088 52.1507 1.6748
-1.7234 64.2093 -0.5006
11.8085 59.4705 -6.0000
-6.7660 50.7516 -6.0000
-0.1231 63.4942 -1.7759
-2.9087 61.5963 -1.7650
-2.0014 57.5767 -1.3022
0.2895 65.8236 0.1616
-19.9798 61.6082 1.0215
4.9602 59.1489 1.3043
9.2814 60.9766 1.3251
34.6502 67.9165 -6.0000
6.3556 64.9933 0.0757
-10.6506 66.3750 -6.0000
4.3719 58.5500 1.0738
1.9690 55.2814 -6.0000
-1.8536 58.8088 0.8345
10.0412 38.9196 -6.0000
-4.8673 60.5415 0.6709

VERTICES 117 234
1 0
1 1
1 2
1 3
1 4
1 5
1 6
1 7
1 8
1 9
1 10
1 11
1 12
1 13
1 14
1 15
1 16
1 17
1 18
1 19
1 20
1 21
1 22
1 23
1 24
1 25
1 26
1 27
1 28
1 29
1 30
1 31
1 32
1 33
1 34
1 35
1 36
1 37
1 38
1 39
1 40
1 41
1 42
1 43
1 44
1 45
1 46
1 47
1 48
1 49
1 50
1 51
1 52
1 53
1 54
1 55
1 56
1 57
1 58
1 59
1 60
1 61
1 62
1 63
1 64
1 65
1 66
1 67
1 68
1 69
1 70
1 71
1 72
1 73
1 74
1 75
1 76
1 77
1 78
1 79
1 80
1 81
1 82
1 83
1 84
1 85
1 86
1 87
1 88
1 89
1 90
1 91
1 92
1 93
1 94
1 95
1 96
1 97
1 98
1 99
1 100
1 101
1 102
1 103
1 104
1 105
1 106
1 107
1 108
1 109
1 110
1 111
1 112
1 113
1 114
1 115
1 116

POINT_DATA 117
VECTORS Velocity float
-2.1619 31.4050 30.0016
-2.1747 78.8162 91.4467
-21.8760 72.5291 68.4224
-2.9040 80.6718 113.8588
37.2396 88.8243 85.9182
-41.7687 110.7191 105.0119
35.1056 44.9430 62.2797
-5.6492 17.9004 49.1306
-16.6822 22.9152 37.3375
47.6604 106.6989 86.0138
-16.7452 27.4646 29.9635
13.5274 -9.9822 -46.1584
-22.2389 37.0745 -60.1467
-17.5463 123.5645 124.0152
-14.1581 49.7046 91.3778
38.3384 70.2571 62.6909
15.8028 73.6770 74.6552
21.4165 112.9892 74.4924
5.1791 5.9499 -40.0383
-5.7774 69.8541 105.9608
2.5063 7.0011 -23.5035
1.8613 -4.5281 -40.5153
21.4171 34.6602 35.2514
32.9621 43.8297 58.1892
10.5837 2.6614 -61.7702
-33.6577 69.4266 59.6365
-1.9738 34.2904 -54.7505
-51.0989 83.9104 86.5872
13.7867 23.1252 57.6046
31.3616 74.1583 87.0557
4.7733 20.1050 -33.5730
34.5120 49.1701 71.5697
-56.3811 88.3581 103.0425
9.2651 -4.4810 -23.6254
-36.2899 76.3498 63.1026
24.5396 72.9466 58.7495
15.9576 11.4902 -63.6155
-35.0992 60.4293 83.3435
-3.2239 25.2997 49.9151
2.2170 -10.9723 -44.0343
-9.6441 -6.2623 -64.8559
0.6584 -5.0121 -41.8352
-52.2621 40.8054 97.3576
-13.9561 66.2541 65.1122
50.2374 90.6310 59.8843
-38.0476 66.9115 41.2807
5.7624 -8.0691 -32.6719
58.4967 89.3716 75.3083
11.2378 17.0110 -36.9265
46.3552 55.8627 95.1425
-17.3337 67.6745 68.2163
47.4908 100.5934 69.5175
0.0633 -0.8003 -33.6708
-14.0045 58.7935 61.5164
-34.4825 34.8107 65.7041
7.1915 31.8669 65.6088
11.0727 102.5423 107.1573
14.3192 -2.2259 -37.8773
1.8605 11.1821 -66.6744
-40.5500 49.4037 88.5751
-2.0545 56.9916 55.9859
-6.0359 53.6842 53.1991
-8.1758 11.5977 -23.5123
35.4057 67.2757 70.3116
-4.8100 23.7038 48.3212
-50.8713 102.8352 94.8647
28.6592 40.3006 102.0016
-19.8193 36.8044 53.4379
-27.0794 101.9433 109.1017
4.6064 44.9070 43.3662
3.2928 0.5463 -61.6630
-0.2879 81.5259 124.1306
2.4518 6.9391 -33.7372
-20.8275 29.2693 -46.6190
10.2221 71.8646 75.0208
48.8228 75.4435 97.5445
27.3903 85.4973 60.6845
-25.1902 57.6349 52.7756
33.6161 94.2588 79.1480
-29.8154 54.1971 109.3357
-0.9241 89.3194 103.6001
18.6396 31.9355 37.1736
4.7110 42.1444 55.8717
-23.8253 47.1030 59.7213
1.5998 13.6453 -28.1533
-20.9971 57.8619 46.2562
0.0116 9.0282 -19.6034
-19.8825 68.4465 85.6807
12.0160 53.2343 78.7627
37.5838 33.3271 47.0912
-7.2623 2.7610 -26.4014
-1.8190 -0.2611 -58.3223
17.1078 51.0210 88.3558
-8.2191 1.7709 -35.7813
4.8261 30.4980 -59.1715
-8.6618 -9.6170 -58.4983
-11.0074 52.7983 53.5102
-46.7397 85.7327 83.2268
5.1218 43.0888 63.6567
28.4311 58.9392 74.1795
-1.7642 -11.8541 -68.9163
5.6078 20.9472 -57.7930
27.8773 94.2254 123.6596
46.6027 51.8646 58.0740
-50.0871 54.8154 117.3238
-30.6802 34.4766 73.4827
-26.8313 42.7208 37.3091
34.6383 36.8257 61.2689
-28.5986 31.3327 29.4121
-6.3630 14.8987 -36.8911
-12.6801 74.5711 62.5300
4.9562 15.9174 -32.8265
-12.1081 130.9087 81.2889
1.5025 -0.1840 -27.2546
-23.8171 42.6501 38.4050
5.7316 -3.5255 -27.5448
14.8269 116.0065 98.4748
SCALARS Mass float
LOOKUP_TABLE default
0.001150
0.000188
0.000675
0.000970
0.001486
0.001458
0.000874
0.001474
0.001857
0.001981
0.001642
0.001156
0.000480
0.001567
0.001740
0.001588
0.000879
0.001168
0.001024
0.000344
0.001013
0.000900
0.001571
0.000474
0.000128
0.000496
0.001730
0.000765
0.001761
0.001713
0.001777
0.000196
0.000524
0.001805
0.000561
0.001613
0.001357
0.001535
0.000661
0.001624
0.001561
0.000516
0.001591
0.001023
0.001439
0.001400
0.001478
0.000807
0.000830
0.000317
0.001592
0.001988
0.001055
0.001383
0.000121
0.001261
0.001178
0.001726
0.001511
0.000609
0.001076
0.000523
0.000930
0.001513
0.000805
0.000613
0.000937
0.001965
0.000859
0.001238
0.000110
0.001084
0.001667
0.001641
0.000412
0.000457
0.000700
0.001906
0.000365
0.001316
0.001996
0.000546
0.001093
0.001168
0.000735
0.001936
0.001077
0.001689
0.001865
0.001406
0.001081
0.000743
0.001878
0.001069
0.000812
0.000857
0.001328
0.001458
0.001067
0.000865
0.000267
0.001341
0.000245
0.000966
0.001700
0.000257
0.000497
0.001676
0.001265
0.000289
0.001222
0.001414
0.001096
0.000280
0.000239
0.001955
0.001111
SCALARS Temperature float
LOOKUP_TABLE default
694.1
572.4
510.8
428.4
496.0
566.7
368.7
554.9
498.6
464.6
692.1
791.0
541.9
381.1
728.9
652.6
494.7
423.6
466.8
455.1
340.1
771.9
613.1
491.7
758.8
690.3
684.5
415.4
550.0
538.8
580.9
433.9
330.5
499.8
649.4
365.0
446.0
328.0
314.8
402.2
662.6
526.5
530.9
322.9
786.5
557.1
433.2
510.8
615.0
668.0
410.6
304.7
642.8
759.7
433.2
314.6
767.9
733.2
317.5
418.1
360.2
490.7
428.6
624.0
382.3
680.5
573.1
461.9
700.6
690.6
339.3
579.2
459.8
722.4
464.1
395.9
685.2
432.7
374.9
797.3
558.5
560.2
395.9
409.2
493.8
580.8
547.6
532.2
712.6
709.0
552.2
761.8
544.6
512.3
352.7
523.7
504.6
367.0
438.4
548.0
468.8
326.1
519.3
597.2
394.8
376.8
724.3
737.6
688.3
527.4
772.5
441.0
741.1
410.6
309.8
368.8
700.0
SCALARS FragmentID int
LOOKUP_TABLE default
0
1
2
3
4
5
6
7
8
9
10
11
12
13
14
15
16
17
18
19
20
21
22
23
24
25
26
27
28
29
30
31
32
33
34
35
36
37
38
39
40
41
42
43
44
45
46
47
48
49
50
51
52
53
54
55
56
57
58
59
60
61
62
63
64
65
66
67
68
69
70
71
72
73
74
75
76
77
78
79
80
81
82
83
84
85
86
87
88
89
90
91
92
93
94
95
96
97
98
99
100
101
102
103
104
105
106
107
108
109
110
111
112
113
114
115
116
