# vtk DataFile Version 3.0
Impact Fragments | Time = 285.7 μs
ASCII
DATASET POLYDATA
POINTS 85 float
5.7123 52.6197 -6.0000
0.3999 61.6725 -1.9439
2.5081 53.4747 -0.4401
0.8350 48.8021 -6.0000
3.3878 58.3531 -0.4472
10.9608 60.0035 1.8076
8.9567 66.0605 0.8028
4.2202 52.7481 -6.0000
7.5029 58.8495 -6.0000
1.5793 63.4754 -1.5936
-1.0663 55.8390 0.9633
-14.0263 54.3686 -1.0796
-8.0363 54.6044 -1.5721
-21.1198 68.5720 -1.4977
6.1164 53.0359 1.6823
2.6548 63.8631 -6.0000
2.6308 67.1505 -1.1192
-6.6295 56.2631 -0.6298
-7.0986 59.3330 1.5207
-20.9129 60.0771 0.3253
-1.7098 57.6282 -6.0000
-4.5320 53.3950 -6.0000
-4.2644 64.4904 -1.6201
8.4371 65.5411 -6.0000
9.4639 61.1602 -6.0000
-22.4546 57.7091 1.5524
11.5383 62.8887 -1.2544
-14.6069 80.2639 -6.0000
-10.3399 56.5011 -1.1929
-0.7463 73.5581 -6.0000
1.7148 56.0511 -6.0000
5.5864 63.8117 -1.0322
10.0564 53.4175 -6.0000
-0.8636 68.8143 1.4564
-7.6396 65.5524 0.4294
-10.5092 59.9303 0.5248
-9.1261 68.6569 -6.0000
-2.2279 67.2321 1.0283
12.8328 57.5725 -0.6852
-1.4117 58.3906 -1.2042
8.0948 64.6958 -6.0000
-1.8568 57.7654 -1.6451
-7.9143 52.0493 -1.1177
-17.0999 59.0651 0.0333
-10.1829 56.9848 -6.0000
2.9120 50.0784 0.5722
4.9350 63.3217 -0.1734
-11.2100 60.1729 -1.0239
3.1629 57.6613 -6.0000
1.7012 58.5711 -0.0588
2.8754 58.4987 1.3357
-1.6631 57.6993 -6.0000
6.0030 55.5450 -6.0000
-3.8866 74.6153 -6.0000
-3.0514 55.1589 -0.9431
-0.0781 43.3985 -6.0000
13.0493 59.1272 -6.0000
11.0887 55.5510 -6.0000
-10.8498 69.4696 1.3260
-2.0185 52.2263 0.9638
3.6728 64.9154 0.7951
-9.5054 57.6400 -6.0000
4.6027 57.4171 -0.3373
-6.1549 57.0738 -6.0000
0.9478 57.1698 1.6078
8.2217 51.1327 -1.7440
4.5964 53.4705 -6.0000
7.4617 66.4427 -0.8591
-9.4074 56.5521 -6.0000
2.9974 55.3471 -1.4642
18.5573 46.0858 -6.0000
-4.0921 55.8446 -1.4940
8.7785 62.9937 0.1175
-7.0212 68.1330 -1.5214
-0.0796 57.8553 -1.7347
-0.4700 62.0689 -1.9744
2.2923 48.6400 0.9157
14.8670 59.5720 -6.0000
7.1564 61.4032 0.4352
-3.3648 52.9827 0.2455
9.2966 53.9310 -0.4899
15.2334 63.6769 -1.6153
-6.9863 58.6697 0.1407
11.6351 60.8750 1.4131
-5.9328 57.9031 1.7311

VERTICES 85 170
1 0
1 1
1 2
1 3
1 4
1 5
1 6
1 7
1 8
1 9
1 10
1 11
1 12
1 13
1 14
1 15
1 16
1 17
1 18
1 19
1 20
1 21
1 22
1 23
1 24
1 25
1 26
1 27
1 28
1 29
1 30
1 31
1 32
1 33
1 34
1 35
1 36
1 37
1 38
1 39
1 40
1 41
1 42
1 43
1 44
1 45
1 46
1 47
1 48
1 49
1 50
1 51
1 52
1 53
1 54
1 55
1 56
1 57
1 58
1 59
1 60
1 61
1 62
1 63
1 64
1 65
1 66
1 67
1 68
1 69
1 70
1 71
1 72
1 73
1 74
1 75
1 76
1 77
1 78
1 79
1 80
1 81
1 82
1 83
1 84

POINT_DATA 85
VECTORS Velocity float
9.5260 -6.4566 -59.6820
-18.5025 32.5672 33.5592
-52.9212 75.6745 104.2584
11.6124 15.7193 -40.6650
-34.4571 107.2904 98.4327
0.4176 45.1722 45.4015
1.4649 26.3743 30.5967
-9.9196 -0.1601 -30.6821
-11.7935 -7.7192 -41.7944
8.0594 79.1185 42.2764
-17.8638 53.8944 55.7334
50.2659 75.8222 84.8135
45.3682 65.7537 63.7568
-0.6979 50.0302 50.8730
-38.3982 91.9508 84.0389
-0.5012 4.5180 -38.9890
25.9339 38.1287 34.4176
31.3645 80.8958 124.6673
18.3752 51.9129 66.9294
-21.4119 51.0715 82.8395
-6.1205 8.2401 -29.3029
4.2926 36.7153 -66.8114
-16.4040 52.2579 63.0104
9.9295 -6.8429 -58.4065
-11.4190 26.1850 -46.4137
-18.0418 37.4658 37.3921
-44.1132 111.0728 76.6426
-23.2383 23.4645 -74.7485
-3.2162 67.0280 86.7529
-13.1069 -3.9881 -35.9087
9.7162 -3.0824 -42.2289
-10.1393 29.3362 48.6811
12.8240 9.5737 -47.3443
-57.6856 98.8761 103.4266
30.9395 30.1498 43.3189
-23.7079 19.1251 55.2701
12.8584 11.5572 -28.9315
23.2986 47.3827 35.4318
27.4796 92.4575 73.4496
32.9605 66.8130 50.7380
9.8820 12.2336 -34.3778
-56.1281 104.7979 110.3026
-17.6723 40.3663 73.8981
6.3802 96.0700 118.2079
-13.0639 20.5779 -46.1870
-3.5862 24.3265 38.8753
12.7152 50.2013 57.0865
-38.0039 82.5563 114.8747
1.7631 31.9209 -51.0203
-13.5242 91.6665 82.9737
28.7143 44.8709 55.2174
5.7119 6.7877 -52.5335
-12.7850 27.0863 -59.7445
14.5024 11.3113 -42.3090
37.0193 90.4015 121.4126
-4.8483 19.2048 -38.7088
-3.0815 18.6005 -60.9000
15.0354 2.1727 -74.9600
-32.3391 99.6387 110.5277
-31.0851 90.2759 76.1962
-2.8617 57.5796 84.5439
-2.1162 15.4140 -31.2506
32.1771 43.9901 92.0136
6.8245 -3.6786 -32.2098
-37.7864 53.6514 55.8313
-7.1608 47.7309 41.0210
-4.4645 21.9179 -29.6606
26.1665 39.4036 43.4106
5.5802 11.2561 -24.6869
-71.5321 104.9971 121.9527
6.3813 -3.4633 -32.0068
3.3054 37.8250 56.9055
13.0048 65.8571 79.3202
-6.4598 56.3395 85.2541
-37.8966 62.9924 71.3519
-25.9351 36.3580 48.1777
-28.7224 65.9490 40.0978
-18.3469 -10.4840 -61.1433
-7.8384 94.9420 110.8408
-45.8598 61.2099 67.2499
-10.1889 101.4265 67.5498
0.1435 32.0008 34.5847
-22.8996 75.7274 89.6554
-12.3216 93.3745 78.1737
26.7489 51.2427 47.6917
SCALARS Mass float
LOOKUP_TABLE default
0.001487
0.001825
0.000208
0.001106
0.001092
0.000189
0.000247
0.000254
0.001355
0.001789
0.000886
0.001635
0.001799
0.001372
0.000435
0.001130
0.000693
0.000750
0.001715
0.001107
0.000132
0.001494
0.000356
0.000978
0.000988
0.001483
0.000324
0.000760
0.001394
0.001189
0.000287
0.001800
0.001983
0.001726
0.001052
0.000472
0.001085
0.001134
0.000428
0.000351
0.001486
0.001249
0.000661
0.000991
0.000974
0.001302
0.001423
0.001226
0.000537
0.000271
0.001616
0.000766
0.001059
0.001244
0.001109
0.001614
0.001040
0.000734
0.001863
0.000138
0.001244
0.001542
0.000203
0.000939
0.001516
0.001195
0.000818
0.001931
0.000156
0.001252
0.001884
0.000404
0.001981
0.000816
0.000276
0.000665
0.000568
0.001668
0.000918
0.001001
0.001129
0.001627
0.001685
0.001848
0.000424
SCALARS Temperature float
LOOKUP_TABLE default
357.9
623.8
736.8
733.5
610.9
617.4
498.4
333.1
580.4
406.0
469.5
784.1
489.6
704.6
693.9
598.6
637.3
651.6
397.2
452.4
561.8
715.3
556.4
765.2
795.1
451.1
722.6
798.8
468.2
349.8
443.3
333.6
664.7
404.0
788.9
558.1
363.4
705.7
322.4
707.4
642.0
699.8
699.8
391.8
692.0
513.8
690.7
733.8
432.3
727.9
549.6
650.1
360.8
375.5
545.9
442.8
655.7
617.9
580.0
646.6
533.6
761.7
564.5
528.2
462.7
428.7
331.4
461.6
594.9
714.4
359.7
362.8
603.8
532.8
468.7
658.9
610.2
357.9
559.0
509.2
309.6
635.7
380.0
542.1
505.0
SCALARS FragmentID int
LOOKUP_TABLE default
0
1
2
3
4
5
6
7
8
9
10
11
12
13
14
15
16
17
18
19
20
21
22
23
24
25
26
27
28
29
30
31
32
33
34
35
36
37
38
39
40
41
42
43
44
45
46
47
48
49
50
51
52
53
54
55
56
57
58
59
60
61
62
63
64
65
66
67
68
69
70
71
72
73
74
75
76
77
78
79
80
81
82
83
84
