# vtk DataFile Version 3.0
Impact Fragments | Time = 464.3 μs
ASCII
DATASET POLYDATA
POINTS 139 float
-9.8161 60.4754 -6.0000
4.2713 59.2688 1.9827
13.0396 61.9942 -6.0000
10.0447 65.7927 1.4666
5.9917 57.1782 0.0482
-8.4436 56.8446 1.4106
10.0077 60.9801 -0.6450
5.9633 66.8673 0.3873
-1.7607 53.7190 -6.0000
-4.7300 59.5258 -6.0000
-2.7970 74.1221 0.8713
7.1919 58.3218 -1.3476
-14.3717 71.0187 -1.0659
15.3381 49.2048 -6.0000
-1.0959 56.2413 -0.8680
10.0131 68.0257 -6.0000
-3.2061 57.4195 1.2130
-4.4824 71.1971 -6.0000
-19.9643 55.0050 0.8805
-0.7647 51.9097 1.3456
-2.4473 74.6868 -1.3915
-8.1860 58.0641 -1.5730
3.8681 57.5921 0.0009
6.8665 70.8025 -1.7750
4.9672 65.0711 0.4094
7.4653 67.4579 -0.9849
-14.9247 70.9321 -0.3403
10.6113 53.8083 -1.0134
0.3296 62.3214 -0.1339
-9.1376 60.9569 0.4883
2.4597 60.3697 1.7429
14.5105 59.1703 -6.0000
9.3195 59.5614 -6.0000
-0.9234 54.8856 -1.9069
2.2547 62.5735 1.6669
2.1940 69.7861 -6.0000
-10.0239 73.4303 -6.0000
-12.6702 61.6925 -6.0000
1.7718 60.5277 1.7984
4.2470 61.0222 -6.0000
19.9930 60.4181 -1.3430
-0.7169 42.0124 0.8269
4.0179 44.7711 -6.0000
4.6578 64.1264 -1.0541
6.2976 62.8036 -0.6838
7.5025 64.1003 0.5546
0.1250 57.0267 0.4000
0.4973 63.9133 -6.0000
0.5350 55.6652 -6.0000
9.6625 55.2760 -6.0000
-3.4495 60.9001 -0.0752
-20.9813 52.1349 -6.0000
8.0609 56.0644 -6.0000
-2.5791 63.4533 -6.0000
-8.4313 63.4097 0.7705
-0.3352 40.7704 -6.0000
0.9488 55.8599 0.3852
1.2146 67.3169 1.3129
7.3881 65.5116 -0.2982
-0.8247 55.8374 0.1321
5.2868 51.2235 -6.0000
1.3747 49.1684 -6.0000
-6.6731 72.3154 -6.0000
0.0095 61.1564 0.9830
-0.1889 52.8072 0.7411
3.5521 58.0434 -6.0000
1.9332 47.0039 -6.0000
-1.4778 65.7083 -1.1073
-0.1535 51.3831 -6.0000
-3.9891 62.0730 -1.9492
-0.6941 65.5268 1.7151
-2.6242 62.8272 -1.6647
-2.9678 63.1587 1.0371
1.4362 57.8771 -0.7657
-4.1472 59.4039 -0.1417
2.2609 52.0834 -6.0000
2.6375 74.8922 -6.0000
-3.0011 44.2731 -6.0000
1.0252 66.0332 1.3328
0.7298 60.3297 1.3378
18.3624 69.1167 -0.0801
15.9232 61.6801 0.3152
2.5705 66.3207 -0.6596
0.8937 65.3029 0.2128
-0.8767 60.7628 -1.9771
-2.3103 53.4186 -0.1392
-3.6790 43.9242 -6.0000
-0.3051 62.2747 -1.4601
-4.4049 62.5706 1.5222
1.4525 66.2594 -0.6606
1.2394 62.1672 -0.2962
-9.8345 64.2548 -6.0000
1.2312 56.9106 0.7529
-13.0960 61.7200 0.1969
0.9009 57.7107 -1.2377
-8.0993 56.1045 -6.0000
4.1426 67.9027 -6.0000
3.3710 48.6034 -6.0000
0.3696 57.8244 0.4072
5.4816 61.9882 -6.0000
0.6597 60.7023 1.8120
0.9179 55.8986 -0.6433
1.7966 57.7230 1.4957
-2.2099 62.2106 0.9686
-2.8635 67.0552 -1.7455
-9.4925 51.5765 -0.7542
9.8488 65.6107 -0.7768
9.8621 63.3162 -1.3185
-11.5211 62.8162 0.5325
9.9533 48.6186 -6.0000
-2.3440 58.4755 1.1479
7.7564 67.8963 -6.0000
-12.8359 58.8360 -6.0000
23.5377 63.1380 -6.0000
-14.2246 62.5236 -6.0000
11.5085 46.2637 -6.0000
0.2914 62.0049 -6.0000
-5.4787 58.8396 0.9555
-6.4386 62.7089 -6.0000
2.7915 64.8764 1.6359
9.1918 67.8135 -6.0000
-3.3169 63.1920 1.3628
3.0500 52.0032 0.5224
16.9423 59.4392 -1.3541
7.0261 55.7804 0.6705
2.6332 66.7981 1.5363
5.5030 53.4341 -1.7041
-21.6974 50.9978 -6.0000
4.9390 60.6764 0.8588
5.4692 45.3276 -6.0000
-0.6162 69.5744 -6.0000
-16.1384 53.6519 -6.0000
-9.0975 64.8372 -1.8014
8.9785 71.7008 -6.0000
12.1830 70.4609 -6.0000
0.8905 67.1090 -0.9690
3.6685 67.0762 -6.0000
8.0848 51.7792 0.7052
-3.0070 53.3370 -0.0774

VERTICES 139 278
1 0
1 1
1 2
1 3
1 4
1 5
1 6
1 7
1 8
1 9
1 10
1 11
1 12
1 13
1 14
1 15
1 16
1 17
1 18
1 19
1 20
1 21
1 22
1 23
1 24
1 25
1 26
1 27
1 28
1 29
1 30
1 31
1 32
1 33
1 34
1 35
1 36
1 37
1 38
1 39
1 40
1 41
1 42
1 43
1 44
1 45
1 46
1 47
1 48
1 49
1 50
1 51
1 52
1 53
1 54
1 55
1 56
1 57
1 58
1 59
1 60
1 61
1 62
1 63
1 64
1 65
1 66
1 67
1 68
1 69
1 70
1 71
1 72
1 73
1 74
1 75
1 76
1 77
1 78
1 79
1 80
1 81
1 82
1 83
1 84
1 85
1 86
1 87
1 88
1 89
1 90
1 91
1 92
1 93
1 94
1 95
1 96
1 97
1 98
1 99
1 100
1 101
1 102
1 103
1 104
1 105
1 106
1 107
1 108
1 109
1 110
1 111
1 112
1 113
1 114
1 115
1 116
1 117
1 118
1 119
1 120
1 121
1 122
1 123
1 124
1 125
1 126
1 127
1 128
1 129
1 130
1 131
1 132
1 133
1 134
1 135
1 136
1 137
1 138

POINT_DATA 139
VECTORS Velocity float
-7.0036 -1.7662 -38.6808
46.2729 50.4741 105.1799
8.2785 13.0720 -26.0041
25.6920 33.2869 60.0706
-29.0693 78.5599 78.1723
16.2516 70.0001 97.0726
22.2505 21.3524 43.2241
5.2555 49.9701 102.9656
-1.1725 -10.7538 -60.4279
5.9963 0.6307 -76.6682
-7.6355 73.2103 51.4027
-7.9198 33.8510 35.9044
18.5298 103.0680 91.7592
0.0317 26.4156 -50.0031
-15.5894 51.4210 92.0130
11.2897 23.2160 -37.0376
52.0749 61.0656 89.5746
11.7961 -7.7937 -47.1999
0.8272 85.3269 68.1601
-42.4537 87.8706 79.2905
28.2878 31.6668 56.5953
48.3566 93.0704 55.1193
-49.2156 56.3579 103.4183
-47.1509 102.6742 54.9686
16.1819 27.4486 26.4160
36.1081 146.6754 107.1452
-0.0316 26.3128 37.7802
-39.0711 62.8473 66.9785
55.4759 109.6417 104.4233
-48.2020 54.3843 109.6538
-5.3369 39.8046 65.0840
2.0851 18.3928 -37.5909
10.4670 24.0218 -32.1039
-62.2846 69.8572 113.4998
-52.4783 84.5891 99.4395
-3.7984 11.1264 -32.1333
10.7509 18.0136 -23.5848
-2.9302 -5.0170 -27.1749
22.7664 29.1346 47.7810
7.4603 14.2148 -26.1980
-27.6471 28.5871 58.4980
-10.9714 24.5953 44.3782
-11.9114 0.4918 -37.5994
-28.7622 78.4564 51.4806
2.5656 20.3257 54.1588
56.0260 103.3012 84.2361
28.4993 98.6145 91.7811
-7.8727 0.5155 -30.4123
-6.1712 1.2156 -47.1748
-9.8978 15.3898 -44.2245
19.8522 71.4340 63.5607
-9.1581 10.3921 -43.4620
-1.1386 -3.5526 -27.9470
-2.4838 -7.5229 -39.6102
-47.1280 47.8195 88.8786
4.2943 -5.5610 -64.7944
-32.5038 41.2660 55.7118
-47.9216 136.0530 136.8271
14.4108 93.9889 81.0931
-69.3277 94.0094 74.9276
-21.1366 23.2168 -58.0758
3.2360 14.9084 -41.7877
-9.4940 16.9999 -37.3554
-17.3244 28.9174 31.9752
-66.8328 50.1038 130.9427
8.2317 -6.1245 -49.7683
-15.5392 18.8041 -46.1294
-30.3315 73.1226 56.7023
-0.3167 -0.7173 -35.0265
-4.5913 46.7549 61.6193
-36.8383 102.2110 103.4877
-40.4526 51.8523 68.1490
-1.9207 61.9024 84.4477
28.1869 45.5385 67.3233
19.1031 31.8175 70.4129
-15.6185 -2.6797 -62.1547
-14.0454 5.6001 -57.2549
-7.7016 2.0130 -33.4134
-64.3143 147.4828 147.0504
-10.5333 43.7442 72.9245
46.4851 88.1412 88.0533
-44.1523 33.2384 88.6419
20.5240 52.7178 39.0982
37.9428 89.5844 102.8735
-24.0593 16.4971 47.8695
50.2714 127.3500 109.1261
11.8132 -4.6314 -57.0071
6.7660 37.0038 46.0303
23.2766 32.2402 57.0009
16.8456 34.4704 65.9256
39.0381 113.7179 117.7185
3.9475 3.4431 -36.6689
-1.5054 24.9712 67.2661
-49.5486 72.8927 83.8028
36.9520 49.6798 79.8933
5.1403 -9.5242 -57.5402
6.2036 17.3565 -43.4099
-0.4464 -3.3363 -34.1498
-33.0907 75.4118 72.5242
-1.1905 19.4164 -51.7970
-24.6153 45.9522 91.0890
-3.4978 75.4532 65.6335
-41.1206 49.0901 72.6229
51.0763 45.3310 94.4231
-37.5546 42.4806 60.1951
-21.3993 45.2209 79.9064
-1.6297 66.3875 77.3875
-9.6594 36.0021 30.4967
50.1683 104.7010 115.1092
3.1158 25.4043 -39.7647
-68.6458 76.2723 110.3634
-15.4360 11.2985 -48.2617
2.0000 -4.9015 -57.1829
5.0734 -2.5581 -49.2742
6.4953 22.5976 -46.6680
0.9023 -3.6064 -68.8664
1.7035 14.1352 -21.8286
-56.9863 56.9271 105.1048
2.6358 31.6733 -57.9450
-16.8414 42.9493 86.0504
-10.1367 26.3466 -47.9084
2.6738 58.4109 42.8614
1.5540 85.9389 83.9624
20.7540 36.6265 49.2629
-8.7176 50.6889 136.8277
46.6845 114.4753 103.6471
-15.6675 47.3134 68.3433
1.4188 20.2199 -47.9774
-47.8062 60.7714 110.0753
-19.6003 12.3479 -47.4774
15.1884 8.3900 -44.1067
-3.3404 17.1025 -33.0480
29.0337 53.6605 48.6378
-5.0351 12.3341 -24.2037
-12.6828 16.2614 -26.1672
-38.5736 77.9935 73.3918
17.3452 9.5644 -43.4332
-3.4835 53.8741 55.4730
-10.0823 61.2826 86.2900
SCALARS Mass float
LOOKUP_TABLE default
0.001433
0.001468
0.001832
0.000273
0.000817
0.001452
0.001765
0.000866
0.001279
0.000483
0.001878
0.001939
0.002000
0.000351
0.001058
0.000530
0.000675
0.000861
0.000312
0.001567
0.000187
0.000743
0.000537
0.000440
0.000858
0.000940
0.000478
0.000828
0.000826
0.001347
0.001543
0.000403
0.000618
0.000729
0.000414
0.001507
0.001220
0.000148
0.001223
0.000213
0.000696
0.000701
0.000738
0.001812
0.001195
0.000181
0.001950
0.000507
0.001469
0.000205
0.000224
0.000490
0.000497
0.001071
0.001868
0.001704
0.001308
0.001668
0.000456
0.000591
0.001597
0.001085
0.001798
0.001731
0.001600
0.001557
0.000258
0.001927
0.000198
0.000532
0.001137
0.001759
0.001556
0.000857
0.001565
0.001316
0.001264
0.000544
0.000645
0.001472
0.000389
0.000779
0.001090
0.001588
0.001143
0.000966
0.001514
0.001050
0.000578
0.001681
0.000860
0.001223
0.000771
0.000185
0.001671
0.000499
0.001125
0.000773
0.000995
0.001033
0.000483
0.000696
0.000514
0.001095
0.000955
0.001668
0.000651
0.000746
0.000927
0.000624
0.000182
0.001597
0.000621
0.001870
0.000494
0.001130
0.000374
0.000135
0.001731
0.001052
0.001705
0.001978
0.001737
0.000953
0.001854
0.001427
0.000314
0.000450
0.001077
0.001158
0.001992
0.001879
0.001655
0.001823
0.000250
0.001364
0.000869
0.001159
0.001456
SCALARS Temperature float
LOOKUP_TABLE default
697.4
727.8
348.2
517.5
596.9
359.7
481.3
566.1
559.0
520.4
418.5
654.8
579.7
417.2
493.4
444.7
446.5
698.7
697.1
755.4
612.4
391.7
624.9
402.4
433.4
332.0
512.8
619.6
654.9
302.5
747.0
592.5
313.2
531.9
497.5
613.0
408.4
326.2
479.7
788.0
667.1
796.8
516.3
738.0
646.7
655.9
737.5
735.6
555.7
473.2
575.7
394.9
656.4
712.0
796.6
476.2
759.0
539.4
456.5
591.5
349.9
538.1
498.2
399.8
527.7
797.0
738.7
648.3
657.5
524.3
621.9
583.4
532.1
497.5
430.7
607.5
441.9
415.3
674.8
520.5
390.2
543.5
652.8
666.0
761.2
689.5
470.2
445.4
784.1
687.7
749.6
367.3
347.5
313.2
705.2
681.5
645.4
540.8
687.3
604.5
618.9
633.5
547.7
560.9
705.8
349.0
429.8
674.5
319.9
583.5
345.6
773.6
408.8
663.7
472.7
642.2
653.5
540.2
561.9
440.1
390.2
691.4
716.3
553.3
703.4
529.2
678.3
319.3
760.8
438.4
446.0
313.4
698.3
590.4
561.5
718.3
384.2
499.2
396.8
SCALARS FragmentID int
LOOKUP_TABLE default
0
1
2
3
4
5
6
7
8
9
10
11
12
13
14
15
16
17
18
19
20
21
22
23
24
25
26
27
28
29
30
31
32
33
34
35
36
37
38
39
40
41
42
43
44
45
46
47
48
49
50
51
52
53
54
55
56
57
58
59
60
61
62
63
64
65
66
67
68
69
70
71
72
73
74
75
76
77
78
79
80
81
82
83
84
85
86
87
88
89
90
91
92
93
94
95
96
97
98
99
100
101
102
103
104
105
106
107
108
109
110
111
112
113
114
115
116
117
118
119
120
121
122
123
124
125
126
127
128
129
130
131
132
133
134
135
136
137
138
