# vtk DataFile Version 3.0
Impact Fragments | Time = 321.4 μs
ASCII
DATASET POLYDATA
POINTS 96 float
5.7325 51.2058 -6.0000
-4.4693 64.1290 -6.0000
-5.2135 61.9513 -6.0000
2.9883 64.5212 -6.0000
12.5479 60.1684 -6.0000
-6.9755 65.8603 -1.2398
12.9631 56.0805 -6.0000
-3.6155 67.3868 -0.6146
-1.6014 60.8510 0.2697
-2.5882 58.0310 1.2852
18.1992 61.4758 -6.0000
2.6103 67.4824 0.8289
27.3493 63.5986 -6.0000
6.4110 65.9637 -6.0000
10.3426 59.4731 -1.5263
4.1007 50.6035 1.5917
-12.7082 64.2353 -0.2747
13.0461 53.1210 -6.0000
-0.4587 62.5975 -0.8337
-4.8156 65.8850 -6.0000
1.3237 61.0749 1.0945
-4.1258 53.1430 -1.2404
9.6231 58.7293 0.2715
-1.5914 55.0743 -6.0000
-2.9926 62.1611 -6.0000
9.1821 67.5789 -0.6398
7.4488 57.6760 -6.0000
-1.5929 57.5122 -0.1191
-17.0065 49.4784 -6.0000
1.8967 64.1511 0.7894
11.6882 69.1821 -0.6486
-4.0395 51.3875 -6.0000
1.9938 59.1567 0.0282
-1.5193 60.9218 -6.0000
1.4602 57.1955 -1.1353
11.0148 56.5198 0.8223
-17.5626 59.9431 -0.2064
9.9897 49.6708 -1.5858
-20.2609 58.1529 -0.6809
4.7156 63.2618 1.1255
3.0930 49.4100 -6.0000
0.2151 55.3204 1.8886
15.0892 63.3362 -6.0000
-5.3749 68.8591 -6.0000
-9.7930 61.7689 0.4799
21.9085 53.3829 -6.0000
6.9832 61.1376 -1.5845
1.1617 55.6678 1.5163
-7.7441 61.1189 -0.6349
-18.7922 53.1757 0.4693
-5.1251 53.8365 -1.1099
2.0190 57.9092 1.5279
-2.6612 68.1717 1.0130
-3.9731 63.9568 0.1685
3.8857 62.5518 1.3879
-0.3595 62.7829 -1.8052
-3.1570 58.4745 0.9443
21.0567 61.6962 -6.0000
16.0528 57.5776 -0.1540
-7.7136 57.8546 1.4961
0.8842 60.0036 -0.3334
-19.1402 61.8049 -6.0000
-11.9924 59.6304 0.3362
6.3720 71.8999 -6.0000
-7.6610 61.2930 1.5020
4.7602 61.9802 0.6189
-18.7687 65.9752 1.3994
-8.8946 54.6654 1.2250
-2.1957 53.1361 -1.7081
-2.8228 74.5473 -6.0000
10.0438 62.7769 -6.0000
-21.2481 75.5761 -6.0000
-11.3388 67.7075 -0.2822
-13.3545 63.9485 -1.9854
3.5565 60.7816 -0.9191
0.0961 63.4630 0.2548
3.0456 49.2856 1.6855
4.4562 60.4486 -0.0735
10.1504 64.3804 -6.0000
7.7352 64.2771 -6.0000
13.5915 55.8896 -1.8790
1.1145 66.4239 1.4976
1.5462 60.9411 -1.5104
0.0332 66.5063 0.0566
-11.8604 67.8316 -1.1593
-1.0507 57.6960 -0.3343
-0.1913 69.4404 0.0896
0.7725 58.0266 -0.6224
4.6489 51.6822 -1.9121
-4.1580 56.9054 -1.7203
12.0426 44.6710 -0.6429
6.4075 63.5981 0.4589
3.7130 61.7672 -6.0000
5.8051 58.9867 -0.8231
7.2365 65.0920 1.6549
3.1795 62.9263 -0.2588

VERTICES 96 192
1 0
1 1
1 2
1 3
1 4
1 5
1 6
1 7
1 8
1 9
1 10
1 11
1 12
1 13
1 14
1 15
1 16
1 17
1 18
1 19
1 20
1 21
1 22
1 23
1 24
1 25
1 26
1 27
1 28
1 29
1 30
1 31
1 32
1 33
1 34
1 35
1 36
1 37
1 38
1 39
1 40
1 41
1 42
1 43
1 44
1 45
1 46
1 47
1 48
1 49
1 50
1 51
1 52
1 53
1 54
1 55
1 56
1 57
1 58
1 59
1 60
1 61
1 62
1 63
1 64
1 65
1 66
1 67
1 68
1 69
1 70
1 71
1 72
1 73
1 74
1 75
1 76
1 77
1 78
1 79
1 80
1 81
1 82
1 83
1 84
1 85
1 86
1 87
1 88
1 89
1 90
1 91
1 92
1 93
1 94
1 95

POINT_DATA 96
VECTORS Velocity float
-11.2396 17.9918 -31.7200
-12.0121 8.6391 -58.9283
2.7890 23.6049 -37.5158
20.6678 -10.0314 -70.9841
-3.1496 1.4243 -25.1322
-6.7858 45.0911 40.7397
-1.8285 -12.9800 -42.3430
19.1437 70.3374 61.5386
26.2431 41.4392 52.3649
1.3019 41.1707 68.8079
5.4186 1.2366 -36.7885
-34.9561 94.1869 91.8329
-20.3152 -10.6906 -37.6636
14.4920 30.8903 -35.7531
-8.8148 77.1386 130.5644
-4.9068 130.6837 97.5700
-49.2238 90.0661 68.6818
11.6048 -6.8532 -28.6228
22.2737 50.9911 60.5153
-2.8348 17.9521 -27.4808
20.8302 27.6805 67.8542
-68.3939 113.4614 78.9861
28.0249 102.3359 89.4785
-6.4412 8.5103 -58.0883
-0.6587 -2.2869 -51.0597
49.4380 38.5189 96.1992
14.2596 -8.1760 -39.4448
-36.6212 41.6483 73.6426
10.0310 9.6621 -22.7371
-46.1017 135.4400 91.4328
-5.0299 94.4318 126.9339
-10.0122 5.7757 -25.0805
45.3106 97.1533 68.0842
-2.4425 17.1180 -31.4140
-31.6100 48.0577 72.0507
50.3778 92.1897 106.0385
-39.2092 81.0588 111.1866
-46.7031 53.8321 70.7440
51.2612 127.0271 137.2515
2.4439 52.5827 58.2273
-8.8318 1.6231 -23.9433
11.0413 17.9827 43.1837
-4.3169 8.6466 -29.9982
8.0409 9.2613 -60.3560
26.5170 112.3998 103.9492
13.7845 1.1677 -38.1446
17.2534 129.2343 122.2252
-53.7494 44.3351 107.2213
-17.7639 48.7788 81.9930
-20.6096 57.2654 54.6502
-42.9341 107.2150 91.7128
-14.5450 21.6995 53.6761
-29.6779 53.5385 60.6716
5.2468 50.6273 30.1289
22.3383 34.2242 95.1723
-27.0287 102.4163 89.7057
8.0026 44.5571 59.3915
-9.2963 14.4497 -34.5889
53.4971 102.8725 108.8402
-46.7424 123.6481 70.9283
58.4829 55.6599 78.4675
2.6242 14.6192 -26.9056
-9.5026 78.5633 76.1430
12.0789 -14.5915 -73.7311
27.0066 35.0485 61.1409
-8.8399 39.4846 44.0939
63.2224 129.2913 108.2295
30.1626 58.8357 77.3221
32.4840 65.9556 70.5138
0.1240 19.4173 -37.8913
5.0331 32.0880 -64.7045
-2.8334 2.6396 -40.9426
-11.8333 48.4500 48.9932
20.2184 49.2764 50.8570
-15.0108 31.7209 43.0757
54.2053 99.7320 117.9053
-51.3302 104.0202 106.7166
16.4050 42.4021 55.7750
0.9671 25.0713 -40.6603
-9.6028 -4.5835 -19.8423
10.7983 57.6472 61.9699
-16.1900 28.8648 52.4924
-26.9536 45.5579 60.6621
17.6647 71.4843 84.7974
2.5772 44.4139 44.5669
33.6470 65.0511 68.9427
28.8260 91.9493 86.9583
1.1567 119.8539 85.6536
46.1655 57.0589 79.3913
-15.5951 127.9165 82.2925
-5.9556 92.2766 107.1917
-22.8530 28.0193 54.1690
2.4902 -3.0629 -22.4204
-58.1922 97.8941 87.4290
-38.5364 34.7584 86.2451
3.6108 25.5611 39.7947
SCALARS Mass float
LOOKUP_TABLE default
0.001556
0.000361
0.000586
0.000282
0.000752
0.001432
0.001423
0.001755
0.001465
0.001944
0.000501
0.001020
0.000556
0.001812
0.000228
0.000215
0.001425
0.001711
0.000558
0.001481
0.000228
0.000867
0.000176
0.001625
0.001005
0.001922
0.000292
0.000334
0.001097
0.000351
0.001030
0.000168
0.001492
0.000960
0.001163
0.000580
0.001002
0.001461
0.001770
0.000890
0.001718
0.000154
0.000402
0.000293
0.000549
0.000473
0.000596
0.001648
0.000855
0.000839
0.001833
0.001985
0.001071
0.000994
0.001809
0.000931
0.000966
0.000664
0.000255
0.000813
0.001935
0.000767
0.000971
0.001325
0.001288
0.000990
0.001629
0.000826
0.001640
0.000186
0.001299
0.000436
0.001241
0.001930
0.000341
0.000470
0.001990
0.001788
0.000704
0.000130
0.001915
0.000295
0.000331
0.001156
0.000656
0.001952
0.001040
0.001595
0.001956
0.000989
0.000455
0.001205
0.001559
0.001255
0.000422
0.001769
SCALARS Temperature float
LOOKUP_TABLE default
370.6
715.9
740.9
613.4
379.7
609.3
644.7
681.3
348.9
709.0
445.1
677.3
413.6
727.5
453.2
773.1
630.5
584.0
364.9
540.2
477.7
779.0
314.2
674.0
777.5
643.5
424.3
442.6
774.0
606.7
471.6
382.1
585.9
629.8
531.0
399.9
630.7
313.9
552.9
476.5
566.7
304.2
651.8
739.2
789.4
436.6
573.3
593.6
556.9
311.3
502.7
397.5
502.6
696.8
715.0
452.1
569.5
695.1
791.2
739.5
603.4
723.1
655.0
511.1
405.7
572.4
317.4
743.8
613.2
706.1
756.9
686.2
525.2
517.8
454.2
524.3
392.8
722.3
349.0
761.4
397.8
774.1
345.2
529.9
497.6
316.8
630.0
328.1
759.4
458.5
779.8
446.0
701.7
502.2
685.2
503.1
SCALARS FragmentID int
LOOKUP_TABLE default
0
1
2
3
4
5
6
7
8
9
10
11
12
13
14
15
16
17
18
19
20
21
22
23
24
25
26
27
28
29
30
31
32
33
34
35
36
37
38
39
40
41
42
43
44
45
46
47
48
49
50
51
52
53
54
55
56
57
58
59
60
61
62
63
64
65
66
67
68
69
70
71
72
73
74
75
76
77
78
79
80
81
82
83
84
85
86
87
88
89
90
91
92
93
94
95
