# vtk DataFile Version 3.0
Impact Fragments | Time = 71.4 μs
ASCII
DATASET POLYDATA
POINTS 21 float
8.6230 54.0860 -1.9285
-1.6745 65.2232 -0.4210
-11.3191 52.8508 -6.0000
5.4357 67.0957 1.5761
3.0929 61.1198 0.6554
14.6812 67.1461 0.6676
3.7864 49.5691 -6.0000
1.8861 63.9096 1.0588
7.4438 58.3421 -0.2227
-4.2154 57.3813 1.3508
-16.6859 63.1362 -0.5752
-5.2764 64.7806 0.4586
-0.4943 67.4986 -0.0534
-4.2398 53.7175 -0.6748
-0.7416 52.5242 -6.0000
1.1966 61.4552 -1.8908
-8.3674 54.7935 -6.0000
-2.2359 61.4552 1.8482
-12.3354 59.9068 -0.2477
-2.9377 59.0063 1.2542
-0.8377 68.3353 0.3472

VERTICES 21 42
1 0
1 1
1 2
1 3
1 4
1 5
1 6
1 7
1 8
1 9
1 10
1 11
1 12
1 13
1 14
1 15
1 16
1 17
1 18
1 19
1 20

POINT_DATA 21
VECTORS Velocity float
-27.4373 96.3035 97.3054
43.7346 78.5108 50.2246
-12.9319 5.4365 -41.0234
28.3307 70.8873 46.3143
-51.9582 70.8958 107.9339
49.2056 54.0598 69.8114
8.2847 11.7549 -45.0470
-56.9112 53.4475 85.5283
-24.9817 96.3354 84.0043
-21.3333 97.5091 73.8431
16.2307 131.1956 107.3328
-13.0898 46.6148 72.2531
6.8625 26.1279 59.6735
-37.1253 27.5456 67.0185
8.7728 -2.8917 -20.3656
-57.5311 85.4768 117.1116
-5.3546 -4.7424 -45.8309
6.8883 37.0526 67.4258
50.5545 38.4189 85.2461
-18.0273 55.4578 64.7608
-14.1491 46.0309 84.2953
SCALARS Mass float
LOOKUP_TABLE default
0.000673
0.000770
0.000465
0.001838
0.001229
0.001290
0.001536
0.001186
0.001714
0.001171
0.001787
0.001410
0.001881
0.000888
0.000899
0.001179
0.001063
0.000185
0.000885
0.000943
0.001368
SCALARS Temperature float
LOOKUP_TABLE default
599.3
784.0
644.6
383.9
369.7
747.1
545.4
475.7
711.7
782.7
543.9
618.3
477.2
726.3
435.6
736.5
421.6
739.1
396.9
452.4
768.6
SCALARS FragmentID int
LOOKUP_TABLE default
0
1
2
3
4
5
6
7
8
9
10
11
12
13
14
15
16
17
18
19
20
