# vtk DataFile Version 3.0
Impact Fragments | Time = 214.3 μs
ASCII
DATASET POLYDATA
POINTS 64 float
-7.0649 62.0017 -1.8405
8.7606 63.0629 0.2262
-1.4613 55.7508 -6.0000
-4.8111 79.2637 -6.0000
17.4532 72.2982 -6.0000
18.9482 60.0359 1.4942
-1.0637 61.4025 -0.0720
3.6414 53.5525 -0.5107
8.7212 62.5624 -1.9230
0.6904 62.2638 0.9735
-3.9288 62.8958 -0.3485
11.1605 58.5740 1.8428
0.8251 69.1104 -6.0000
17.7555 61.0102 -6.0000
1.4976 61.2201 -1.4888
-8.2882 57.9245 1.5838
-1.1018 61.0524 0.9388
7.9292 66.1654 -0.6876
-15.7263 47.3845 -6.0000
-4.3118 57.6985 -0.3498
2.2885 51.6251 -6.0000
-2.7768 54.4320 -0.2698
-5.6713 55.7430 1.1601
5.7872 59.0088 0.3525
-4.3138 51.9473 1.0968
0.8299 57.9117 -6.0000
-2.6653 68.0146 -6.0000
8.3663 58.8993 -1.0337
-2.8378 64.9324 1.0615
13.9959 58.3571 -1.6620
8.2617 75.3605 -6.0000
-3.5549 57.4889 1.8903
-5.9895 68.8211 0.6617
3.7791 64.4515 0.0631
6.9642 51.4111 0.0780
-11.4284 62.9733 -1.7639
-9.1987 50.6006 -6.0000
-4.0857 61.3427 0.0660
-10.9960 73.7247 -0.6030
2.8491 69.8547 -6.0000
5.7542 57.9308 -6.0000
7.2127 70.3339 -6.0000
2.1380 67.8889 -0.6479
-2.3658 66.8084 -1.8050
5.4712 60.3745 -0.7421
14.9825 54.8566 0.1545
-4.9275 57.9483 -0.4485
0.4662 61.4508 -0.9194
18.2635 67.0799 0.9110
-4.1548 57.2724 -6.0000
1.9305 70.6484 -0.7679
5.6417 70.1273 -6.0000
12.4135 60.1301 -1.2690
5.9877 60.1082 -6.0000
7.3501 58.8931 -1.8303
-1.3929 56.1983 0.0781
-8.3508 54.2233 0.3855
-8.1168 49.2127 -1.4396
-17.4507 60.0812 -1.0616
10.7814 62.9920 -0.9386
-0.8422 62.9808 -1.1921
0.5417 51.6287 -6.0000
-5.6340 54.7857 -6.0000
0.1424 57.4405 -6.0000

VERTICES 64 128
1 0
1 1
1 2
1 3
1 4
1 5
1 6
1 7
1 8
1 9
1 10
1 11
1 12
1 13
1 14
1 15
1 16
1 17
1 18
1 19
1 20
1 21
1 22
1 23
1 24
1 25
1 26
1 27
1 28
1 29
1 30
1 31
1 32
1 33
1 34
1 35
1 36
1 37
1 38
1 39
1 40
1 41
1 42
1 43
1 44
1 45
1 46
1 47
1 48
1 49
1 50
1 51
1 52
1 53
1 54
1 55
1 56
1 57
1 58
1 59
1 60
1 61
1 62
1 63

POINT_DATA 64
VECTORS Velocity float
-32.7490 83.7193 81.9230
-54.2858 81.4816 120.3608
-19.9083 -1.1862 -41.4574
15.6807 -6.0348 -45.5290
-2.5278 -11.0763 -39.3777
-34.7666 60.8210 92.6543
37.7235 25.1165 57.4028
-71.1771 46.4702 82.0174
43.3568 44.4031 115.8261
-6.7086 103.4339 76.7600
53.9064 77.0159 61.6754
24.7641 112.2166 84.0809
-12.6032 20.6316 -34.3559
0.1222 -6.5660 -28.9936
-18.0053 31.8068 101.3108
-37.7425 50.8328 123.0153
-12.8164 22.9761 51.0341
38.7923 88.1817 64.8774
2.1316 25.0003 -61.7674
7.4013 23.5587 64.3260
-10.2294 4.9782 -65.3024
30.9564 52.8600 80.6981
53.2544 110.2775 101.0419
17.9698 86.0330 46.6339
-2.0206 125.2917 108.1040
0.4861 11.8929 -18.3318
15.7069 9.2508 -41.9699
6.8707 39.5547 54.2262
-12.7886 50.0658 36.1223
3.2092 45.6070 68.5482
0.6597 10.8526 -43.6424
-54.1904 48.5753 74.7535
18.5082 100.1827 112.9983
-4.8430 139.4128 76.1039
-1.0989 28.8438 34.2026
-47.0844 93.1312 125.7929
12.5840 23.8934 -34.0410
6.8642 35.0125 53.5281
37.9040 62.5303 73.7291
3.2940 4.8748 -31.3502
-2.1656 10.7629 -33.2799
7.6034 -6.8310 -30.3529
32.8517 54.2844 90.5874
42.9672 53.4266 86.6111
20.2742 53.1975 82.4025
-4.1555 40.2313 60.4118
43.6131 78.0837 70.8085
7.1559 36.1817 40.2799
-15.5434 44.9855 35.7282
7.2483 20.5171 -31.5959
24.4715 44.6501 39.8305
0.5652 11.3206 -33.4197
-35.6198 29.2134 50.8428
-1.3643 21.3764 -42.5740
-52.7919 81.2242 83.6875
27.3968 73.1687 86.5612
21.9036 38.4893 44.9700
11.0458 27.0910 54.4409
37.4031 79.0569 75.0278
7.9341 63.2932 103.7570
28.2672 31.5465 51.6046
-11.3516 16.2419 -23.2217
-5.7003 17.1865 -55.6589
-4.6290 -1.4945 -23.9975
SCALARS Mass float
LOOKUP_TABLE default
0.000705
0.001517
0.000903
0.001394
0.001864
0.001177
0.001689
0.000544
0.000591
0.001432
0.000998
0.001106
0.000417
0.000685
0.000707
0.001934
0.001488
0.000836
0.000473
0.001101
0.001090
0.001401
0.000954
0.000438
0.001974
0.001285
0.000106
0.000797
0.000185
0.000236
0.000919
0.001464
0.001448
0.000714
0.000612
0.001907
0.001079
0.001565
0.001923
0.000118
0.000105
0.000261
0.001573
0.000748
0.000235
0.000405
0.000791
0.001412
0.001716
0.000789
0.001882
0.001326
0.001121
0.001099
0.000453
0.000857
0.001852
0.000979
0.000557
0.001146
0.000991
0.001877
0.001454
0.000778
SCALARS Temperature float
LOOKUP_TABLE default
461.2
501.9
482.4
563.6
382.5
566.6
599.1
440.1
308.3
415.5
421.4
380.1
705.6
352.5
692.3
414.9
322.5
771.0
515.3
711.6
746.4
686.1
721.6
724.2
397.9
429.1
469.7
381.9
730.4
314.7
746.1
424.6
778.2
465.9
443.6
430.7
599.4
533.7
596.3
629.9
666.1
476.9
677.7
339.7
574.9
471.6
565.3
567.3
747.9
638.2
580.9
736.2
343.5
385.3
421.6
706.2
665.4
739.7
750.1
569.7
534.2
518.5
764.5
559.4
SCALARS FragmentID int
LOOKUP_TABLE default
0
1
2
3
4
5
6
7
8
9
10
11
12
13
14
15
16
17
18
19
20
21
22
23
24
25
26
27
28
29
30
31
32
33
34
35
36
37
38
39
40
41
42
43
44
45
46
47
48
49
50
51
52
53
54
55
56
57
58
59
60
61
62
63
