# vtk DataFile Version 3.0
Impact Fragments | Time = 428.6 μs
ASCII
DATASET POLYDATA
POINTS 128 float
-2.4173 62.1909 1.5967
-6.8965 67.0373 -1.6907
4.6882 41.8262 0.8811
3.0707 69.9903 1.8173
-4.3609 62.8329 -6.0000
-1.0091 55.6258 -1.2626
-1.8434 52.2738 1.4764
3.4677 63.1606 -6.0000
-1.0702 62.4477 -0.1020
-7.2177 54.4902 1.3798
13.8292 72.1828 -6.0000
-8.4985 56.9885 -6.0000
1.6452 65.5838 1.0522
8.9094 65.0332 -0.7527
-1.3895 63.0260 1.8708
2.8244 63.6295 0.6718
3.3121 60.7325 -1.1276
-7.7687 58.9224 -6.0000
1.8942 60.6572 0.7263
2.1182 61.5646 1.4747
9.5942 55.1137 -6.0000
-7.6099 70.2264 -0.7742
-15.4319 58.7127 0.7996
0.4114 57.7099 0.2880
1.2705 48.3239 0.3754
0.3932 62.0998 -0.2276
0.0669 60.9708 -6.0000
-0.7253 64.8217 -6.0000
7.4752 62.5898 0.5331
-5.4787 60.9226 1.5084
-11.4220 46.3356 -6.0000
-12.6185 60.2935 -1.2227
1.0583 59.4196 -6.0000
-6.9060 67.8876 -1.5164
-5.0056 67.3510 -0.8825
-5.6187 58.1042 -0.6024
1.3475 60.4170 -0.5327
10.7280 57.0922 -0.6561
-1.5645 69.0653 1.0758
-4.1635 58.5471 0.0975
-1.8844 61.2348 -0.6981
-2.2079 59.9365 0.1185
4.0630 59.5118 -6.0000
2.8115 58.0424 -0.8872
3.2304 50.0200 -6.0000
-3.7864 72.5349 -6.0000
-1.5922 59.9798 -0.1796
0.6510 54.5488 1.4473
23.6875 59.9271 -6.0000
2.0624 65.1278 1.9851
-1.4050 63.6301 -0.9080
3.0626 58.6471 0.1534
17.2590 56.1138 -6.0000
15.9480 58.6956 -1.9189
0.6669 48.3976 1.5665
1.7736 54.5009 1.4628
-4.9783 51.5443 -1.7733
-8.3299 64.2843 -1.5665
-3.5797 64.0814 0.3924
-15.7611 57.8297 -1.3463
2.0858 58.4169 -0.5126
0.1914 62.5276 0.2956
4.3351 58.1153 -1.0070
-12.5595 44.9205 -6.0000
4.5025 57.7141 0.7257
-5.1937 61.2355 -0.2968
-4.5454 57.9382 0.7395
6.9408 62.1665 -0.5587
-5.2440 63.6475 -6.0000
0.9852 41.0661 -6.0000
21.3074 61.6224 -6.0000
8.1844 63.9655 1.6244
2.8980 67.2424 -0.1928
-2.0296 65.3547 -0.5644
5.5944 61.3447 -0.7955
4.7520 71.0205 -6.0000
9.6597 54.7847 -6.0000
-14.7714 54.3838 -0.7659
5.1734 61.4556 -6.0000
9.4651 60.5120 1.9469
-0.3419 63.9568 -6.0000
3.0977 56.2123 1.3691
-7.7734 53.5510 1.7168
-4.0906 53.2053 1.3946
-6.5590 64.9333 -6.0000
1.8898 48.3211 0.6031
3.9162 54.6359 -1.6821
-14.7721 62.7024 1.1560
2.4801 53.5806 -6.0000
9.1303 65.8152 -1.4362
1.7364 59.6053 -6.0000
5.6789 52.4158 1.1575
-15.1064 62.9462 1.7970
-4.4485 59.0847 -0.6299
1.7094 60.4968 1.2149
1.9754 57.1102 1.6091
-4.5221 49.3205 -6.0000
-5.0692 58.9874 -0.5098
1.1562 66.3059 -6.0000
-11.2384 60.9647 1.8126
5.1564 72.5374 -6.0000
-9.1611 59.9224 0.4562
-11.3973 61.6544 1.9418
1.4010 45.7806 -6.0000
11.4697 59.3965 0.5597
9.9905 59.2397 0.6979
-6.2857 65.9966 -0.4638
-17.0129 65.2010 -6.0000
0.3356 56.0572 -1.7078
-1.6176 68.1219 -6.0000
-1.1441 54.2245 -6.0000
-4.4458 57.5600 -1.4142
-2.0468 60.8333 -0.0584
-1.6679 64.6329 1.8385
14.5404 65.7230 -1.7372
9.8914 59.2827 -0.5316
8.0532 61.6584 -0.0015
-10.2051 48.7773 -6.0000
1.0382 73.1536 0.2619
-8.7015 61.1580 -0.4553
3.7124 48.2970 0.8074
2.3137 60.6488 -1.9266
3.7340 65.9977 1.0454
-12.0699 54.1693 -0.3011
-6.3331 57.6034 -6.0000
-20.0825 68.1007 -6.0000
11.4049 58.1464 -6.0000
-7.5494 69.2494 1.7045

VERTICES 128 256
1 0
1 1
1 2
1 3
1 4
1 5
1 6
1 7
1 8
1 9
1 10
1 11
1 12
1 13
1 14
1 15
1 16
1 17
1 18
1 19
1 20
1 21
1 22
1 23
1 24
1 25
1 26
1 27
1 28
1 29
1 30
1 31
1 32
1 33
1 34
1 35
1 36
1 37
1 38
1 39
1 40
1 41
1 42
1 43
1 44
1 45
1 46
1 47
1 48
1 49
1 50
1 51
1 52
1 53
1 54
1 55
1 56
1 57
1 58
1 59
1 60
1 61
1 62
1 63
1 64
1 65
1 66
1 67
1 68
1 69
1 70
1 71
1 72
1 73
1 74
1 75
1 76
1 77
1 78
1 79
1 80
1 81
1 82
1 83
1 84
1 85
1 86
1 87
1 88
1 89
1 90
1 91
1 92
1 93
1 94
1 95
1 96
1 97
1 98
1 99
1 100
1 101
1 102
1 103
1 104
1 105
1 106
1 107
1 108
1 109
1 110
1 111
1 112
1 113
1 114
1 115
1 116
1 117
1 118
1 119
1 120
1 121
1 122
1 123
1 124
1 125
1 126
1 127

POINT_DATA 128
VECTORS Velocity float
26.4649 91.7741 97.6127
1.4344 63.5837 55.7906
-15.2082 134.8422 74.1716
15.0997 93.0252 84.6899
1.8795 -9.5332 -32.6401
10.7753 30.5716 35.0793
-20.6801 44.9713 36.6922
-9.0879 4.8971 -31.8244
-33.4253 63.4496 61.2124
39.0555 71.5947 77.1302
14.1275 7.3438 -43.4360
1.6537 12.2622 -49.2199
-12.2958 62.7927 113.3668
-33.8826 61.2756 65.7500
-15.2409 73.6256 75.4845
-24.9655 120.9900 111.7997
42.8801 42.3634 115.8310
9.6554 -3.7977 -30.4402
-2.7228 131.0235 77.2668
31.7970 127.7768 98.2898
3.8827 9.2991 -27.5147
-16.8734 27.4116 53.1042
7.7642 52.5763 63.3839
-25.7969 59.0768 104.3838
-40.4295 37.3280 55.2540
-32.0217 73.2422 50.6334
-8.5021 -3.6119 -21.7176
-1.5834 12.5214 -28.0453
-19.0129 40.1356 56.4561
11.3684 30.6296 42.4312
-14.5440 -10.5810 -51.0728
21.6381 45.4930 53.7733
-13.0062 9.4852 -40.2413
52.1618 81.1403 58.3972
-4.1769 27.4175 68.4996
-35.8900 81.8139 108.4611
-4.7209 29.7815 42.6092
-33.1874 87.3423 54.8158
6.6841 92.4047 77.2529
-28.7288 68.3051 100.1697
-44.2269 64.6620 66.9780
26.6597 29.5440 36.7614
-2.4546 12.7291 -35.4296
8.8197 48.6553 27.0077
15.8732 -1.1415 -45.0625
-10.6886 -9.0976 -33.8325
-13.3626 45.9943 84.6763
-55.7390 51.0121 117.4281
-6.0575 19.4832 -36.0652
-22.1892 60.7624 52.4863
41.7795 36.1610 93.2497
52.1240 79.5693 86.3397
19.2181 -1.7915 -59.6262
2.7727 57.0188 48.1456
-7.6018 69.0170 120.5356
-20.4723 52.4158 42.9192
49.8016 42.5122 88.1995
8.8972 71.1901 63.6775
-32.1366 54.7320 96.0606
-36.2432 53.5892 116.2563
71.4766 68.8333 99.5221
36.7449 83.4533 65.0860
42.3951 138.0361 142.3556
14.9201 -1.8338 -40.6575
-14.5002 33.2725 60.5815
6.0656 25.4216 54.8894
-30.4191 73.8689 95.8352
-31.8452 42.1024 36.0377
5.0635 20.1254 -51.6158
4.0056 0.9327 -29.4419
0.2538 24.8097 -55.7625
-54.7033 106.1252 70.8915
-23.7895 102.1705 112.6299
38.5533 48.1421 64.3203
29.9122 41.5629 54.6399
-7.9384 -12.8435 -32.7425
8.7975 7.5137 -34.5245
22.4222 47.3114 66.6376
5.5408 8.5751 -28.1150
-44.7003 60.4476 74.6294
11.9227 12.7584 -24.9518
-8.1915 48.5478 68.0860
-19.0885 66.6402 88.3095
30.9098 98.9260 112.3837
-15.8919 14.9046 -45.1651
49.0252 46.4350 103.7524
-39.9544 51.1523 85.9800
-17.0694 27.8812 50.5496
-10.7559 2.9967 -44.5211
9.8379 41.0338 62.0365
-7.8008 16.9713 -42.1017
5.3098 90.7282 82.7133
54.2671 119.6699 83.8990
-34.9007 56.6411 95.9285
2.4534 27.7271 70.3154
49.4174 38.2216 102.9709
2.6170 3.7942 -44.2488
36.0842 72.6793 99.7741
0.0073 7.4867 -62.9420
7.7670 73.1363 86.8470
22.9341 12.9748 -43.0197
14.2883 44.6894 80.0435
13.3329 52.0567 57.7206
7.7054 10.2450 -59.4162
-21.0992 48.4048 28.9622
-10.8272 49.7923 28.0741
25.9374 91.1894 120.2677
-9.4807 -11.9726 -32.2927
47.4505 64.0294 130.6397
19.8892 -5.7556 -58.8165
7.2051 7.9041 -40.4308
-15.7255 44.0569 29.1738
50.8430 47.6488 106.8123
-23.1459 83.7780 87.1878
17.3304 61.9519 56.2335
-14.2015 31.5007 38.1279
-7.5626 65.8337 100.7625
-2.5751 19.9886 -30.7514
52.5479 120.7987 70.6079
24.1878 25.3816 48.5638
-4.1985 47.9867 60.0988
8.8633 75.7895 80.0679
51.9738 72.0727 72.3452
6.0573 66.0432 70.0317
0.1926 18.4091 -50.9657
5.3592 18.5942 -29.8713
-10.3551 8.2443 -24.8211
17.4338 31.6355 58.9392
SCALARS Mass float
LOOKUP_TABLE default
0.001650
0.001034
0.001969
0.001116
0.001876
0.001230
0.001685
0.000317
0.001511
0.000760
0.000507
0.000533
0.001218
0.001625
0.000706
0.001039
0.001929
0.001442
0.001705
0.001856
0.000433
0.001029
0.001054
0.000588
0.001518
0.001943
0.001773
0.000475
0.001706
0.000495
0.001620
0.001555
0.000269
0.000597
0.001018
0.000746
0.000889
0.001426
0.001938
0.000614
0.000202
0.000322
0.000258
0.001281
0.001238
0.000316
0.000752
0.000587
0.001962
0.001146
0.000807
0.001239
0.000441
0.000463
0.001447
0.001113
0.001204
0.001595
0.000463
0.001640
0.001037
0.000399
0.001751
0.001750
0.000621
0.000677
0.001248
0.000806
0.001676
0.001309
0.000176
0.000537
0.001323
0.001598
0.000497
0.001413
0.001225
0.000120
0.001575
0.000950
0.000481
0.000770
0.001161
0.000442
0.000260
0.000687
0.000239
0.000356
0.001711
0.001505
0.000102
0.001615
0.000291
0.000555
0.001091
0.000868
0.001353
0.001810
0.001061
0.001478
0.000181
0.001580
0.000588
0.000819
0.001619
0.000770
0.001011
0.000223
0.000180
0.000302
0.000989
0.000621
0.000667
0.000762
0.000514
0.001791
0.000283
0.001347
0.000329
0.001746
0.001578
0.000168
0.001392
0.000157
0.001155
0.000720
0.001788
0.000864
SCALARS Temperature float
LOOKUP_TABLE default
328.6
362.6
789.6
571.6
647.1
392.3
599.9
301.0
508.7
438.9
550.0
440.5
450.4
485.9
398.1
653.0
384.7
384.7
674.6
517.6
654.3
765.4
703.5
551.0
445.9
766.9
493.5
796.2
557.1
756.4
314.8
519.3
431.5
668.4
692.5
742.6
638.1
311.5
434.2
615.8
593.0
310.8
407.9
567.9
587.9
531.7
304.5
753.8
303.0
365.1
538.8
362.6
412.4
516.3
710.0
674.3
791.9
502.7
334.0
677.6
583.7
705.1
651.5
702.4
680.7
728.8
605.2
566.3
406.7
559.1
540.0
738.7
711.2
438.9
317.1
521.1
616.6
483.8
754.4
446.6
307.4
527.4
439.8
615.9
543.0
374.3
679.4
584.4
322.8
762.2
478.3
305.1
333.8
389.4
398.9
583.2
614.4
507.9
709.4
663.6
726.2
546.5
454.4
511.8
635.9
453.7
692.9
617.6
472.8
672.4
652.9
626.1
653.0
304.0
669.2
640.6
380.7
660.6
595.3
453.1
433.6
459.9
661.8
360.0
332.7
428.2
683.4
326.0
SCALARS FragmentID int
LOOKUP_TABLE default
0
1
2
3
4
5
6
7
8
9
10
11
12
13
14
15
16
17
18
19
20
21
22
23
24
25
26
27
28
29
30
31
32
33
34
35
36
37
38
39
40
41
42
43
44
45
46
47
48
49
50
51
52
53
54
55
56
57
58
59
60
61
62
63
64
65
66
67
68
69
70
71
72
73
74
75
76
77
78
79
80
81
82
83
84
85
86
87
88
89
90
91
92
93
94
95
96
97
98
99
100
101
102
103
104
105
106
107
108
109
110
111
112
113
114
115
116
117
118
119
120
121
122
123
124
125
126
127
