# vtk DataFile Version 3.0
Impact Fragments | Time = 107.1 μs
ASCII
DATASET POLYDATA
POINTS 32 float
-0.0473 62.7325 -1.7802
-3.5262 61.9269 -0.3794
5.1323 59.3715 -1.2219
-5.8309 61.9457 -1.3449
17.1457 63.6819 -6.0000
0.5453 63.3044 -6.0000
-4.9378 56.5944 -6.0000
-1.2211 59.2949 1.0810
5.1372 70.2968 -6.0000
16.5926 61.6759 -6.0000
2.7148 55.4184 -0.6365
-6.1439 67.6432 0.6184
9.4630 62.1865 -0.3773
2.3090 62.7454 0.9024
6.7656 54.6107 -0.5220
-2.9493 65.2896 -0.8585
12.7903 50.4652 -1.4633
-12.3910 55.6441 0.4293
4.9127 64.8789 -6.0000
2.7219 63.9519 -0.0574
1.1620 52.0151 -6.0000
-5.0686 56.7330 -1.9624
2.1693 64.6946 -6.0000
1.1007 59.0712 0.7429
8.4104 52.0972 0.1294
9.5528 50.1700 1.7519
-7.2329 59.9196 0.5331
5.9087 61.1546 -0.5941
4.2546 55.7180 0.5046
-2.5620 60.2933 -0.2106
-4.0455 54.0713 -0.4515
0.8133 62.8267 -1.4203

VERTICES 32 64
1 0
1 1
1 2
1 3
1 4
1 5
1 6
1 7
1 8
1 9
1 10
1 11
1 12
1 13
1 14
1 15
1 16
1 17
1 18
1 19
1 20
1 21
1 22
1 23
1 24
1 25
1 26
1 27
1 28
1 29
1 30
1 31

POINT_DATA 32
VECTORS Velocity float
10.1659 75.5958 69.1525
46.2661 57.2151 79.7087
1.6096 60.4511 50.1323
13.2471 30.1464 49.5608
13.9893 16.8496 -31.6662
2.8401 -1.7785 -48.1108
6.0722 19.5296 -46.8520
34.5335 34.6258 76.7922
-2.7424 13.8066 -22.9885
-16.1329 0.5628 -56.9643
-24.7791 81.5682 60.9011
-30.0683 115.6341 76.0671
-20.4557 40.2058 88.0604
22.3889 46.5223 53.0213
45.9836 92.0400 73.1898
-20.5528 77.8347 105.4363
49.0537 78.0373 73.4391
47.3016 69.3233 124.3303
5.5881 8.3206 -34.6045
-24.6507 115.3458 118.6038
4.7410 5.1634 -48.4159
15.9506 67.3251 48.3291
11.8380 -0.2771 -49.9819
-11.5690 18.6122 47.2969
-9.4545 43.3845 71.8724
16.8691 119.2839 66.7428
-37.4162 43.2352 127.6931
-67.5206 139.6796 124.8425
28.6537 68.5876 59.2509
61.3844 93.5417 101.5972
9.9783 60.4341 84.3289
-36.8388 67.9230 61.6006
SCALARS Mass float
LOOKUP_TABLE default
0.001630
0.000378
0.001381
0.000552
0.001794
0.001794
0.000164
0.000672
0.001690
0.001764
0.001636
0.000966
0.000222
0.000983
0.000740
0.000954
0.000827
0.000446
0.001088
0.001622
0.000373
0.000165
0.001257
0.001203
0.000389
0.001730
0.001582
0.001983
0.001496
0.001343
0.000770
0.001939
SCALARS Temperature float
LOOKUP_TABLE default
394.0
442.0
473.5
719.7
736.8
572.1
682.8
411.7
763.1
367.2
724.8
715.3
733.2
416.1
403.3
544.3
656.4
455.2
457.2
596.4
536.4
766.3
434.1
309.4
751.0
536.9
710.5
310.7
416.0
381.5
490.0
474.5
SCALARS FragmentID int
LOOKUP_TABLE default
0
1
2
3
4
5
6
7
8
9
10
11
12
13
14
15
16
17
18
19
20
21
22
23
24
25
26
27
28
29
30
31
