# vtk DataFile Version 3.0
Impact Fragments | Time = 178.6 μs
ASCII
DATASET POLYDATA
POINTS 53 float
0.8081 66.0317 -6.0000
-3.9471 62.1600 0.3381
3.1463 42.5708 0.8711
1.5415 62.1300 -1.9732
-5.1380 56.3341 1.0326
-14.6325 67.1516 -1.7464
-2.0646 53.3552 -1.1205
-8.5358 56.2105 1.4256
17.8623 60.6696 -6.0000
2.5117 63.9877 1.0377
-8.2918 60.2325 0.8303
-2.3129 59.9034 -6.0000
-5.5755 59.8297 -1.0601
1.7708 57.7844 -6.0000
-2.6820 61.8071 0.6558
-1.5566 57.4279 0.1420
-8.1504 53.0668 0.2240
-0.7959 65.0427 -1.6132
-6.1553 58.4629 1.5318
-8.7687 60.4107 0.7310
-8.7038 68.0844 -6.0000
12.3852 57.6862 -0.1940
-13.7932 59.4840 1.5584
13.1392 49.5989 -6.0000
-4.4323 66.8488 -6.0000
-6.3388 56.8085 -6.0000
5.4781 58.0143 -1.8761
-3.2293 57.2329 -0.9197
24.1006 57.2393 -0.6850
7.9813 63.4527 -1.9941
2.8740 61.6995 0.0283
0.1532 56.8834 1.1678
1.6652 52.5378 -0.8563
-3.6500 57.1446 0.5835
1.6629 60.1409 1.3158
0.5935 52.2913 0.6267
1.0838 55.5283 1.0139
-9.3300 65.0946 -6.0000
1.0621 60.8972 -0.6715
-6.3668 64.0398 -6.0000
6.8747 60.1748 -0.9724
-3.4983 61.8522 -1.0137
-10.3033 54.0666 1.1888
-13.1193 46.6248 -6.0000
1.0853 62.7844 -0.5997
-12.3969 56.2835 0.7063
1.9117 64.5857 0.0558
-0.5245 57.7962 -1.2674
4.7086 54.0194 0.1302
-3.3151 50.8650 -1.4226
-2.4649 61.1268 0.8433
-7.1970 58.1304 -1.1561
-6.4807 54.7742 -1.0125

VERTICES 53 106
1 0
1 1
1 2
1 3
1 4
1 5
1 6
1 7
1 8
1 9
1 10
1 11
1 12
1 13
1 14
1 15
1 16
1 17
1 18
1 19
1 20
1 21
1 22
1 23
1 24
1 25
1 26
1 27
1 28
1 29
1 30
1 31
1 32
1 33
1 34
1 35
1 36
1 37
1 38
1 39
1 40
1 41
1 42
1 43
1 44
1 45
1 46
1 47
1 48
1 49
1 50
1 51
1 52

POINT_DATA 53
VECTORS Velocity float
-2.5761 6.2747 -37.4613
-34.1435 92.3007 88.9182
-12.8421 59.8801 39.4429
44.5635 80.2443 95.2961
-24.7351 72.5429 86.9614
21.6448 33.3682 49.6577
-45.2781 42.5362 92.6019
-14.2220 39.8145 72.4826
-0.7024 -0.6283 -40.3275
20.0019 51.2125 76.8071
49.4531 86.1338 115.4630
0.9592 26.4072 -45.8958
-38.1927 78.0004 51.2523
9.0462 23.3168 -48.5874
33.3723 76.1279 49.7806
39.0607 58.1422 55.5709
-13.4234 53.5158 73.0306
61.3414 135.9598 110.5592
41.1681 52.2326 77.0670
-44.5300 46.5513 96.7726
2.4243 3.3794 -36.8632
34.9325 44.7033 46.7362
33.1061 92.4813 72.2087
5.6756 10.6374 -62.9239
3.0195 12.7725 -54.1169
-6.0768 -7.2179 -44.5640
15.5879 116.3201 85.7169
-37.1012 59.9185 61.5954
22.5741 87.7994 94.3276
-8.6600 33.6036 60.2107
-25.8005 56.8322 51.9296
-15.8282 123.1457 115.9433
48.6588 74.0088 81.9369
-59.0341 96.9343 76.6558
-61.9881 86.4936 73.5365
-29.2833 47.5599 42.0718
22.0046 64.1370 65.2579
-18.4107 16.7888 -42.0836
8.5453 44.7672 78.0817
7.9635 15.8926 -29.7258
-21.9198 77.1992 54.9556
19.6309 33.4615 81.8593
-13.5380 29.4990 70.4987
-13.1992 16.1793 -37.8454
-33.1065 43.8423 92.2598
47.7761 94.5707 80.3751
-45.8769 105.2580 140.9874
30.6719 54.2808 61.0904
-13.2368 66.3606 114.4215
72.1780 80.9979 90.4892
-33.5287 119.8649 68.0600
-42.7642 74.1892 108.6134
36.4082 63.3861 46.0251
SCALARS Mass float
LOOKUP_TABLE default
0.000548
0.000674
0.001209
0.001262
0.001090
0.001814
0.000599
0.000458
0.001296
0.001029
0.001039
0.000126
0.001897
0.000925
0.000270
0.001001
0.000532
0.000835
0.000257
0.000903
0.001173
0.000819
0.001586
0.000213
0.001866
0.000913
0.000190
0.000168
0.000418
0.001254
0.001744
0.001198
0.000834
0.000773
0.001805
0.000491
0.000667
0.001100
0.000394
0.000474
0.001405
0.001457
0.001000
0.001806
0.001617
0.001197
0.000285
0.000273
0.001392
0.001913
0.000868
0.000401
0.001741
SCALARS Temperature float
LOOKUP_TABLE default
748.5
458.7
626.6
545.0
691.6
437.0
461.8
457.9
745.2
682.0
431.6
471.5
412.3
475.6
617.5
799.3
454.5
407.3
526.2
462.0
798.4
716.5
516.3
713.9
701.6
346.3
387.6
539.3
365.4
739.8
305.5
475.7
585.7
653.3
586.8
572.3
554.6
734.0
571.7
363.3
441.9
334.2
337.5
499.3
706.7
712.2
619.9
740.9
662.0
377.3
324.8
778.1
414.8
SCALARS FragmentID int
LOOKUP_TABLE default
0
1
2
3
4
5
6
7
8
9
10
11
12
13
14
15
16
17
18
19
20
21
22
23
24
25
26
27
28
29
30
31
32
33
34
35
36
37
38
39
40
41
42
43
44
45
46
47
48
49
50
51
52
